 Entering Gaussian System, Link 0=g09
 Input=c2h4-s.gjf
 Output=D:\work\c2h4-s.out
 Initial command:
 c:\g09w\l1.exe .\gxx.inp D:\work\c2h4-s.out /scrdir=.\
 Entering Link 1 = c:\g09w\l1.exe PID=      3572.
  
 Copyright (c) 1988,1990,1992,1993,1995,1998,2003,2009, Gaussian, Inc.
                  All Rights Reserved.
  
 This is part of the Gaussian(R) 09 program.  It is based on
 the Gaussian(R) 03 system (copyright 2003, Gaussian, Inc.),
 the Gaussian(R) 98 system (copyright 1998, Gaussian, Inc.),
 the Gaussian(R) 94 system (copyright 1995, Gaussian, Inc.),
 the Gaussian 92(TM) system (copyright 1992, Gaussian, Inc.),
 the Gaussian 90(TM) system (copyright 1990, Gaussian, Inc.),
 the Gaussian 88(TM) system (copyright 1988, Gaussian, Inc.),
 the Gaussian 86(TM) system (copyright 1986, Carnegie Mellon
 University), and the Gaussian 82(TM) system (copyright 1983,
 Carnegie Mellon University). Gaussian is a federally registered
 trademark of Gaussian, Inc.
  
 This software contains proprietary and confidential information,
 including trade secrets, belonging to Gaussian, Inc.
  
 This software is provided under written license and may be
 used, copied, transmitted, or stored only in accord with that
 written license.
  
 The following legend is applicable only to US Government
 contracts under FAR:
  
                    RESTRICTED RIGHTS LEGEND
  
 Use, reproduction and disclosure by the US Government is
 subject to restrictions as set forth in subparagraphs (a)
 and (c) of the Commercial Computer Software - Restricted
 Rights clause in FAR 52.227-19.
  
 Gaussian, Inc.
 340 Quinnipiac St., Bldg. 40, Wallingford CT 06492
  
  
 ---------------------------------------------------------------
 Warning -- This program may not be used in any manner that
 competes with the business of Gaussian, Inc. or will provide
 assistance to any competitor of Gaussian, Inc.  The licensee
 of this program is prohibited from giving any competitor of
 Gaussian, Inc. access to this program.  By using this program,
 the user acknowledges that Gaussian, Inc. is engaged in the
 business of creating and licensing software in the field of
 computational chemistry and represents and warrants to the
 licensee that it is not a competitor of Gaussian, Inc. and that
 it will not use this program in any manner prohibited above.
 ---------------------------------------------------------------
  

 Cite this work as:
 Gaussian 09, Revision A.02,
 M. J. Frisch, G. W. Trucks, H. B. Schlegel, G. E. Scuseria, 
 M. A. Robb, J. R. Cheeseman, G. Scalmani, V. Barone, B. Mennucci, 
 G. A. Petersson, H. Nakatsuji, M. Caricato, X. Li, H. P. Hratchian, 
 A. F. Izmaylov, J. Bloino, G. Zheng, J. L. Sonnenberg, M. Hada, 
 M. Ehara, K. Toyota, R. Fukuda, J. Hasegawa, M. Ishida, T. Nakajima, 
 Y. Honda, O. Kitao, H. Nakai, T. Vreven, J. A. Montgomery, Jr., 
 J. E. Peralta, F. Ogliaro, M. Bearpark, J. J. Heyd, E. Brothers, 
 K. N. Kudin, V. N. Staroverov, R. Kobayashi, J. Normand, 
 K. Raghavachari, A. Rendell, J. C. Burant, S. S. Iyengar, J. Tomasi, 
 M. Cossi, N. Rega, J. M. Millam, M. Klene, J. E. Knox, J. B. Cross, 
 V. Bakken, C. Adamo, J. Jaramillo, R. Gomperts, R. E. Stratmann, 
 O. Yazyev, A. J. Austin, R. Cammi, C. Pomelli, J. W. Ochterski, 
 R. L. Martin, K. Morokuma, V. G. Zakrzewski, G. A. Voth, 
 P. Salvador, J. J. Dannenberg, S. Dapprich, A. D. Daniels, 
 O. Farkas, J. B. Foresman, J. V. Ortiz, J. Cioslowski, 
 and D. J. Fox, Gaussian, Inc., Wallingford CT, 2009.
 
 ******************************************
 Gaussian 09:  IA32W-G09RevA.02 11-Jun-2009
                26-Oct-2016 
 ******************************************
 %NProc=4
 Will use up to    4 processors via shared memory.
 %Mem=1200MB
 %chk=hf.chk
 ----------------------------------------------------------------------
 # td(NStates=3,50-50) b3lyp/6-31G(d) sp SCF=Tight pop=full gfinput Iop
 (3/33=1)
 ----------------------------------------------------------------------
 1/38=1/1;
 2/12=2,17=6,18=5,40=1/2;
 3/5=1,6=6,7=1,11=2,16=1,24=10,25=1,30=1,33=1,74=-5/1,2,8,3;
 4//1;
 5/5=2,32=2,38=5/2;
 8/6=1,10=2,108=3/1;
 9/41=3,42=1,48=2/14;
 6/7=3/1;
 99/5=1,9=1/99;
 ----
 c2h4
 ----
 Symbolic Z-matrix:
 Charge =  0 Multiplicity = 1
 C1
 C2                   C1    1.34 
 H3                   C2    1.1      C1    120. 
 H4                   C2    1.1      C1    120.     H3    180.     0
 H5                   C1    1.1      C2    120.     H3    0.       0
 H6                   C1    1.1      C2    120.     H5    180.     0
 
                          Input orientation:                          
 ---------------------------------------------------------------------
 Center     Atomic      Atomic             Coordinates (Angstroms)
 Number     Number       Type             X           Y           Z
 ---------------------------------------------------------------------
      1          6           0        0.000000    0.000000    0.000000
      2          6           0        0.000000    0.000000    1.340000
      3          1           0        0.952628    0.000000    1.890000
      4          1           0       -0.952628    0.000000    1.890000
      5          1           0        0.952628    0.000000   -0.550000
      6          1           0       -0.952628    0.000000   -0.550000
 ---------------------------------------------------------------------
                    Distance matrix (angstroms):
                    1          2          3          4          5
     1  C    0.000000
     2  C    1.340000   0.000000
     3  H    2.116507   1.100000   0.000000
     4  H    2.116507   1.100000   1.905256   0.000000
     5  H    1.100000   2.116507   2.440000   3.095739   0.000000
     6  H    1.100000   2.116507   3.095739   2.440000   1.905256
                    6
     6  H    0.000000
 Stoichiometry    C2H4
 Framework group  D2H[C2"(C.C),SG(H4)]
 Deg. of freedom     3
 Full point group                 D2H     NOp   8
 Largest Abelian subgroup         D2H     NOp   8
 Largest concise Abelian subgroup D2      NOp   4
                         Standard orientation:                         
 ---------------------------------------------------------------------
 Center     Atomic      Atomic             Coordinates (Angstroms)
 Number     Number       Type             X           Y           Z
 ---------------------------------------------------------------------
      1          6           0        0.000000    0.000000    0.670000
      2          6           0        0.000000    0.000000   -0.670000
      3          1           0        0.000000    0.952628   -1.220000
      4          1           0        0.000000   -0.952628   -1.220000
      5          1           0        0.000000    0.952628    1.220000
      6          1           0        0.000000   -0.952628    1.220000
 ---------------------------------------------------------------------
 Rotational constants (GHZ):    138.1419009     30.1290937     24.7344487
 Standard basis: 6-31G(d) (6D, 7F)
                         Coordinates in L301:                         
 ---------------------------------------------------------------------
 Center     Atomic      Atomic             Coordinates (Angstroms)
 Number     Number       Type             X           Y           Z
 ---------------------------------------------------------------------
      1          6           0        0.000000    0.000000    0.670000
      2          6           0        0.000000    0.000000   -0.670000
      3          1           0        0.000000    0.952628   -1.220000
      4          1           0        0.000000   -0.952628   -1.220000
      5          1           0        0.000000    0.952628    1.220000
      6          1           0        0.000000   -0.952628    1.220000
 ---------------------------------------------------------------------
 FixB: optimizing general contractions.
 Ernie: Thresh=  0.10000D-02 Tol=  0.10000D-05 Strict=F.
 IA=     1 NL=   1 NS=   0.
 IA=     1 L=0 SC=0 ISt=    0 NBk=    0 NP=    0 IndPr=    0.
 IA=     1 NL=   2 NS=   1.
 IA=     1 L=1 SC=0 ISt=    0 NBk=    0 NP=    0 IndPr=    0.
 IA=     1 NL=   1 NS=   1.
 IA=     1 L=2 SC=2 ISt=    0 NBk=    0 NP=    0 IndPr=    0.
 IA=     2 NL=   1 NS=   0.
 IA=     2 L=0 SC=0 ISt=    0 NBk=    0 NP=    0 IndPr=    0.
 IA=     2 NL=   2 NS=   1.
 IA=     2 L=1 SC=0 ISt=    0 NBk=    0 NP=    0 IndPr=    0.
 IA=     2 NL=   1 NS=   1.
 IA=     2 L=2 SC=2 ISt=    0 NBk=    0 NP=    0 IndPr=    0.
 IA=     3 NL=   2 NS=   1.
 IA=     3 L=0 SC=0 ISt=    0 NBk=    0 NP=    0 IndPr=    0.
 IA=     4 NL=   2 NS=   1.
 IA=     4 L=0 SC=0 ISt=    0 NBk=    0 NP=    0 IndPr=    0.
 IA=     5 NL=   2 NS=   1.
 IA=     5 L=0 SC=0 ISt=    0 NBk=    0 NP=    0 IndPr=    0.
 IA=     6 NL=   2 NS=   1.
 IA=     6 L=0 SC=0 ISt=    0 NBk=    0 NP=    0 IndPr=    0.
 AO basis set in the form of general basis input (Overlap normalization):
      1 0
 S   6 1.00       0.000000000000
      0.3047524880D+04  0.1834737132D-02
      0.4573695180D+03  0.1403732281D-01
      0.1039486850D+03  0.6884262226D-01
      0.2921015530D+02  0.2321844432D+00
      0.9286662960D+01  0.4679413484D+00
      0.3163926960D+01  0.3623119853D+00
 SP   3 1.00       0.000000000000
      0.7868272350D+01 -0.1193324198D+00  0.6899906659D-01
      0.1881288540D+01 -0.1608541517D+00  0.3164239610D+00
      0.5442492580D+00  0.1143456438D+01  0.7443082909D+00
 SP   1 1.00       0.000000000000
      0.1687144782D+00  0.1000000000D+01  0.1000000000D+01
 D   1 1.00       0.000000000000
      0.8000000000D+00  0.1000000000D+01
 ****
      2 0
 S   6 1.00       0.000000000000
      0.3047524880D+04  0.1834737132D-02
      0.4573695180D+03  0.1403732281D-01
      0.1039486850D+03  0.6884262226D-01
      0.2921015530D+02  0.2321844432D+00
      0.9286662960D+01  0.4679413484D+00
      0.3163926960D+01  0.3623119853D+00
 SP   3 1.00       0.000000000000
      0.7868272350D+01 -0.1193324198D+00  0.6899906659D-01
      0.1881288540D+01 -0.1608541517D+00  0.3164239610D+00
      0.5442492580D+00  0.1143456438D+01  0.7443082909D+00
 SP   1 1.00       0.000000000000
      0.1687144782D+00  0.1000000000D+01  0.1000000000D+01
 D   1 1.00       0.000000000000
      0.8000000000D+00  0.1000000000D+01
 ****
      3 0
 S   3 1.00       0.000000000000
      0.1873113696D+02  0.3349460434D-01
      0.2825394365D+01  0.2347269535D+00
      0.6401216923D+00  0.8137573261D+00
 S   1 1.00       0.000000000000
      0.1612777588D+00  0.1000000000D+01
 ****
      4 0
 S   3 1.00       0.000000000000
      0.1873113696D+02  0.3349460434D-01
      0.2825394365D+01  0.2347269535D+00
      0.6401216923D+00  0.8137573261D+00
 S   1 1.00       0.000000000000
      0.1612777588D+00  0.1000000000D+01
 ****
      5 0
 S   3 1.00       0.000000000000
      0.1873113696D+02  0.3349460434D-01
      0.2825394365D+01  0.2347269535D+00
      0.6401216923D+00  0.8137573261D+00
 S   1 1.00       0.000000000000
      0.1612777588D+00  0.1000000000D+01
 ****
      6 0
 S   3 1.00       0.000000000000
      0.1873113696D+02  0.3349460434D-01
      0.2825394365D+01  0.2347269535D+00
      0.6401216923D+00  0.8137573261D+00
 S   1 1.00       0.000000000000
      0.1612777588D+00  0.1000000000D+01
 ****

 LdAtmC:  AtmChg=     6.000000     6.000000     1.000000     1.000000     1.000000
 LdAtmC:  AtmChg=     1.000000
 AtZEff=     -3.6000000     -3.6000000     -1.0000000     -1.0000000     -1.0000000
 AtZEff=     -1.0000000
 NEqShl: 
              1            2            3            4            5
     1            1            1            5            5            1
     2            2            2            6            6            2
     3            3            3            7            7            3
     4            4            4            8            8            4
     5            5            5            1            1            5
     6            6            6            2            2            6
     7            7            7            3            3            7
     8            8            8            4            4            8
     9            9           11           13           15            9
    10           10           12           14           16           10
    11           11            9           15           13           11
    12           12           10           16           14           12
    13           13           15            9           11           13
    14           14           16           10           12           14
    15           15           13           11            9           15
    16           16           14           12           10           16
              6            7            8
     1            1            5            5
     2            2            6            6
     3            3            7            7
     4            4            8            8
     5            5            1            1
     6            6            2            2
     7            7            3            3
     8            8            4            4
     9           11           13           15
    10           12           14           16
    11            9           15           13
    12           10           16           14
    13           15            9           11
    14           16           10           12
    15           13           11            9
    16           14           12           10
 NEqBas: 
              1            2            3            4            5
     1            1            1           16           16            1
     2            2            2           17           17            2
     3            3           -3          -18           18           -3
     4            4           -4           19          -19            4
     5            5            5          -20          -20            5
     6            6            6           21           21            6
     7            7           -7          -22           22           -7
     8            8           -8           23          -23            8
     9            9            9          -24          -24            9
    10           10           10           25           25           10
    11           11           11           26           26           11
    12           12           12           27           27           12
    13           13           13          -28          -28          -13
    14           14          -14           29          -29          -14
    15           15          -15          -30           30           15
    16           16           16            1            1           16
    17           17           17            2            2           17
    18           18          -18           -3            3          -18
    19           19          -19            4           -4           19
    20           20           20           -5           -5           20
    21           21           21            6            6           21
    22           22          -22           -7            7          -22
    23           23          -23            8           -8           23
    24           24           24           -9           -9           24
    25           25           25           10           10           25
    26           26           26           11           11           26
    27           27           27           12           12           27
    28           28           28          -13          -13          -28
    29           29          -29           14          -14          -29
    30           30          -30          -15           15           30
    31           31           33           35           37           31
    32           32           34           36           38           32
    33           33           31           37           35           33
    34           34           32           38           36           34
    35           35           37           31           33           35
    36           36           38           32           34           36
    37           37           35           33           31           37
    38           38           36           34           32           38
              6            7            8
     1            1           16           16
     2            2           17           17
     3            3           18          -18
     4           -4           19          -19
     5            5          -20          -20
     6            6           21           21
     7            7           22          -22
     8           -8           23          -23
     9            9          -24          -24
    10           10           25           25
    11           11           26           26
    12           12           27           27
    13          -13           28           28
    14           14          -29           29
    15          -15          -30           30
    16           16            1            1
    17           17            2            2
    18           18            3           -3
    19          -19            4           -4
    20           20           -5           -5
    21           21            6            6
    22           22            7           -7
    23          -23            8           -8
    24           24           -9           -9
    25           25           10           10
    26           26           11           11
    27           27           12           12
    28          -28           13           13
    29           29          -14           14
    30          -30          -15           15
    31           33           35           37
    32           34           36           38
    33           31           37           35
    34           32           38           36
    35           37           31           33
    36           38           32           34
    37           35           33           31
    38           36           34           32
 NEqShl: 
              1            2            3            4            5
     1            1            1            5            5            1
     2            2            2            6            6            2
     3            3            3            7            7            3
     4            4            4            8            8            4
     5            5            5            1            1            5
     6            6            6            2            2            6
     7            7            7            3            3            7
     8            8            8            4            4            8
     9            9           11           13           15            9
    10           10           12           14           16           10
    11           11            9           15           13           11
    12           12           10           16           14           12
    13           13           15            9           11           13
    14           14           16           10           12           14
    15           15           13           11            9           15
    16           16           14           12           10           16
              6            7            8
     1            1            5            5
     2            2            6            6
     3            3            7            7
     4            4            8            8
     5            5            1            1
     6            6            2            2
     7            7            3            3
     8            8            4            4
     9           11           13           15
    10           12           14           16
    11            9           15           13
    12           10           16           14
    13           15            9           11
    14           16           10           12
    15           13           11            9
    16           14           12           10
 NEqBas: 
              1            2            3            4            5
     1            1            1           16           16            1
     2            2            2           17           17            2
     3            3           -3          -18           18           -3
     4            4           -4           19          -19            4
     5            5            5          -20          -20            5
     6            6            6           21           21            6
     7            7           -7          -22           22           -7
     8            8           -8           23          -23            8
     9            9            9          -24          -24            9
    10           10           10           25           25           10
    11           11           11           26           26           11
    12           12           12           27           27           12
    13           13           13          -28          -28          -13
    14           14          -14           29          -29          -14
    15           15          -15          -30           30           15
    16           16           16            1            1           16
    17           17           17            2            2           17
    18           18          -18           -3            3          -18
    19           19          -19            4           -4           19
    20           20           20           -5           -5           20
    21           21           21            6            6           21
    22           22          -22           -7            7          -22
    23           23          -23            8           -8           23
    24           24           24           -9           -9           24
    25           25           25           10           10           25
    26           26           26           11           11           26
    27           27           27           12           12           27
    28           28           28          -13          -13          -28
    29           29          -29           14          -14          -29
    30           30          -30          -15           15           30
    31           31           33           35           37           31
    32           32           34           36           38           32
    33           33           31           37           35           33
    34           34           32           38           36           34
    35           35           37           31           33           35
    36           36           38           32           34           36
    37           37           35           33           31           37
    38           38           36           34           32           38
              6            7            8
     1            1           16           16
     2            2           17           17
     3            3           18          -18
     4           -4           19          -19
     5            5          -20          -20
     6            6           21           21
     7            7           22          -22
     8           -8           23          -23
     9            9          -24          -24
    10           10           25           25
    11           11           26           26
    12           12           27           27
    13          -13           28           28
    14           14          -29           29
    15          -15          -30           30
    16           16            1            1
    17           17            2            2
    18           18            3           -3
    19          -19            4           -4
    20           20           -5           -5
    21           21            6            6
    22           22            7           -7
    23          -23            8           -8
    24           24           -9           -9
    25           25           10           10
    26           26           11           11
    27           27           12           12
    28          -28           13           13
    29           29          -14           14
    30          -30          -15           15
    31           33           35           37
    32           34           36           38
    33           31           37           35
    34           32           38           36
    35           37           31           33
    36           38           32           34
    37           35           33           31
    38           36           34           32
 There are    10 symmetry adapted basis functions of AG  symmetry.
   1         1   1  16  16  16  16   1   1
   2         2   2  17  17  17  17   2   2
   3         5   5 -20 -20 -20 -20   5   5
   4         6   6  21  21  21  21   6   6
   5         9   9 -24 -24 -24 -24   9   9
   6        10  10  25  25  25  25  10  10
   7        11  11  26  26  26  26  11  11
   8        12  12  27  27  27  27  12  12
   9        31  33  35  37  37  35  33  31
  10        32  34  36  38  38  36  34  32
 There are     1 symmetry adapted basis functions of B1G symmetry.
  11        13  13  28  28  28  28  13  13
 There are     3 symmetry adapted basis functions of B2G symmetry.
  12         3   3 -18 -18 -18 -18   3   3
  13         7   7 -22 -22 -22 -22   7   7
  14        14  14  29  29  29  29  14  14
 There are     5 symmetry adapted basis functions of B3G symmetry.
  15         4   4 -19 -19 -19 -19   4   4
  16         8   8 -23 -23 -23 -23   8   8
  17        15  15  30  30  30  30  15  15
  18        31 -33 -35  37  37 -35 -33  31
  19        32 -34 -36  38  38 -36 -34  32
 There are     1 symmetry adapted basis functions of AU  symmetry.
  20        13  13 -28 -28 -28 -28  13  13
 There are    10 symmetry adapted basis functions of B1U symmetry.
  21         1   1 -16 -16 -16 -16   1   1
  22         2   2 -17 -17 -17 -17   2   2
  23         5   5  20  20  20  20   5   5
  24         6   6 -21 -21 -21 -21   6   6
  25         9   9  24  24  24  24   9   9
  26        10  10 -25 -25 -25 -25  10  10
  27        11  11 -26 -26 -26 -26  11  11
  28        12  12 -27 -27 -27 -27  12  12
  29        31  33 -35 -37 -37 -35  33  31
  30        32  34 -36 -38 -38 -36  34  32
 There are     5 symmetry adapted basis functions of B2U symmetry.
  31         4   4  19  19  19  19   4   4
  32         8   8  23  23  23  23   8   8
  33        15  15 -30 -30 -30 -30  15  15
  34        31 -33  35 -37 -37  35 -33  31
  35        32 -34  36 -38 -38  36 -34  32
 There are     3 symmetry adapted basis functions of B3U symmetry.
  36         3   3  18  18  18  18   3   3
  37         7   7  22  22  22  22   7   7
  38        14  14 -29 -29 -29 -29  14  14
 Order= 1 2 3 4 8 7 6 5
 Reordered character table:
              1            2            3            4            5
     1            1            1            1            1            1
     2            1            1           -1           -1            1
     3            1           -1            1           -1            1
     4            1           -1           -1            1            1
     5            1           -1           -1            1           -1
     6            1           -1            1           -1           -1
     7            1            1           -1           -1           -1
     8            1            1            1            1           -1
              6            7            8
     1            1            1            1
     2            1           -1           -1
     3           -1            1           -1
     4           -1           -1            1
     5            1            1           -1
     6            1           -1            1
     7           -1            1            1
     8           -1           -1           -1
 Integral buffers will be    262144 words long.
 Raffenetti 2 integral format.
 Two-electron integral symmetry is turned on.
    38 basis functions,    72 primitive gaussians,    38 cartesian basis functions
     8 alpha electrons        8 beta electrons
       nuclear repulsion energy        33.0940774886 Hartrees.
 NAtoms=    6 NActive=    6 NUniq=    2 SFac= 3.00D+00 NAtFMM=   80 NAOKFM=F Big=F
 NPDir=0 NMtPBC=     1 NCelOv=     1 NCel=       1 NClECP=     1 NCelD=      1
         NCelK=      1 NCelE2=     1 NClLst=     1 CellRange=     0.0.
 One-electron integrals computed using PRISM.
 Entering OneElI...
 Calculate overlap and kinetic energy integrals
    NBasis =  38  MinDer = 0  MaxDer = 0
 Requested accuracy = 0.1000D-12
 Symmetry will be used
 PrsmSu:  NPrtUS=   4 ThrOK=T IAlg=1
 PRISM was handed    39311348 working-precision words and   136 shell-pairs
 PRISM was handed    39311348 working-precision words and   136 shell-pairs
 PRISM was handed    39311348 working-precision words and   136 shell-pairs
 IPart=  2 NShTot=           4 NBatch=           4 AvBLen=         1.0
 IPart=  1 NShTot=          16 NBatch=          16 AvBLen=         1.0
 IPart=  0 NShTot=          25 NBatch=          25 AvBLen=         1.0
 PRISM was handed    39311348 working-precision words and   136 shell-pairs
 IPart=  3 NShTot=           3 NBatch=           3 AvBLen=         1.0
 *** Overlap *** 
                1             2             3             4             5 
      1  0.100000D+01
      2  0.219059D+00  0.100000D+01
      3  0.000000D+00  0.000000D+00  0.100000D+01
      4  0.000000D+00  0.000000D+00  0.000000D+00  0.100000D+01
      5  0.000000D+00  0.000000D+00  0.000000D+00  0.000000D+00  0.100000D+01
      6  0.184261D+00  0.812273D+00  0.000000D+00  0.000000D+00  0.000000D+00
      7  0.000000D+00  0.000000D+00  0.569754D+00  0.000000D+00  0.000000D+00
      8  0.000000D+00  0.000000D+00  0.000000D+00  0.569754D+00  0.000000D+00
      9  0.000000D+00  0.000000D+00  0.000000D+00  0.000000D+00  0.569754D+00
     10  0.791027D-01  0.710235D+00  0.000000D+00  0.000000D+00  0.000000D+00
     11  0.791027D-01  0.710235D+00  0.000000D+00  0.000000D+00  0.000000D+00
     12  0.791027D-01  0.710235D+00  0.000000D+00  0.000000D+00  0.000000D+00
     13  0.000000D+00  0.000000D+00  0.000000D+00  0.000000D+00  0.000000D+00
     14  0.000000D+00  0.000000D+00  0.000000D+00  0.000000D+00  0.000000D+00
     15  0.000000D+00  0.000000D+00  0.000000D+00  0.000000D+00  0.000000D+00
     16  0.523577D-05  0.199934D-01  0.000000D+00  0.000000D+00 -0.436097D-01
     17  0.199934D-01  0.206115D+00  0.000000D+00  0.000000D+00 -0.285161D+00
     18  0.000000D+00  0.000000D+00  0.117662D+00  0.000000D+00  0.000000D+00
     19  0.000000D+00  0.000000D+00  0.000000D+00  0.117662D+00  0.000000D+00
     20  0.436097D-01  0.285161D+00  0.000000D+00  0.000000D+00 -0.335531D+00
     21  0.649180D-01  0.361754D+00  0.000000D+00  0.000000D+00 -0.254235D+00
     22  0.000000D+00  0.000000D+00  0.244431D+00  0.000000D+00  0.000000D+00
     23  0.000000D+00  0.000000D+00  0.000000D+00  0.244431D+00  0.000000D+00
     24  0.130202D+00  0.563805D+00  0.000000D+00  0.000000D+00 -0.168546D+00
     25  0.117244D-02  0.944068D-01  0.000000D+00  0.000000D+00 -0.144086D+00
     26  0.117244D-02  0.944068D-01  0.000000D+00  0.000000D+00 -0.144086D+00
     27  0.541589D-01  0.337758D+00  0.000000D+00  0.000000D+00 -0.416241D+00
     28  0.000000D+00  0.000000D+00  0.000000D+00  0.000000D+00  0.000000D+00
     29  0.000000D+00  0.000000D+00  0.186077D+00  0.000000D+00  0.000000D+00
     30  0.000000D+00  0.000000D+00  0.000000D+00  0.186077D+00  0.000000D+00
     31  0.486885D-04  0.843701D-02  0.000000D+00  0.812187D-02 -0.161137D-01
     32  0.147864D-01  0.112945D+00  0.000000D+00  0.522437D-01 -0.103651D+00
     33  0.486885D-04  0.843701D-02  0.000000D+00 -0.812187D-02 -0.161137D-01
     34  0.147864D-01  0.112945D+00  0.000000D+00 -0.522437D-01 -0.103651D+00
     35  0.313253D-01  0.267431D+00  0.000000D+00  0.314378D+00  0.181506D+00
     36  0.910859D-01  0.471617D+00  0.000000D+00  0.229962D+00  0.132769D+00
     37  0.313253D-01  0.267431D+00  0.000000D+00 -0.314378D+00  0.181506D+00
     38  0.910859D-01  0.471617D+00  0.000000D+00 -0.229962D+00  0.132769D+00
                6             7             8             9            10 
      6  0.100000D+01
      7  0.000000D+00  0.100000D+01
      8  0.000000D+00  0.000000D+00  0.100000D+01
      9  0.000000D+00  0.000000D+00  0.000000D+00  0.100000D+01
     10  0.629936D+00  0.000000D+00  0.000000D+00  0.000000D+00  0.100000D+01
     11  0.629936D+00  0.000000D+00  0.000000D+00  0.000000D+00  0.333333D+00
     12  0.629936D+00  0.000000D+00  0.000000D+00  0.000000D+00  0.333333D+00
     13  0.000000D+00  0.000000D+00  0.000000D+00  0.000000D+00  0.000000D+00
     14  0.000000D+00  0.000000D+00  0.000000D+00  0.000000D+00  0.000000D+00
     15  0.000000D+00  0.000000D+00  0.000000D+00  0.000000D+00  0.000000D+00
     16  0.649180D-01  0.000000D+00  0.000000D+00 -0.130202D+00  0.117244D-02
     17  0.361754D+00  0.000000D+00  0.000000D+00 -0.563805D+00  0.944068D-01
     18  0.000000D+00  0.244431D+00  0.000000D+00  0.000000D+00  0.000000D+00
     19  0.000000D+00  0.000000D+00  0.244431D+00  0.000000D+00  0.000000D+00
     20  0.254235D+00  0.000000D+00  0.000000D+00 -0.168546D+00  0.144086D+00
     21  0.582215D+00  0.000000D+00  0.000000D+00 -0.605568D+00  0.257805D+00
     22  0.000000D+00  0.582215D+00  0.000000D+00  0.000000D+00  0.000000D+00
     23  0.000000D+00  0.000000D+00  0.582215D+00  0.000000D+00  0.000000D+00
     24  0.605568D+00  0.000000D+00  0.000000D+00 -0.476436D-01  0.442889D+00
     25  0.257805D+00  0.000000D+00  0.000000D+00 -0.442889D+00  0.769283D-01
     26  0.257805D+00  0.000000D+00  0.000000D+00 -0.442889D+00  0.256428D-01
     27  0.354953D+00  0.000000D+00  0.000000D+00 -0.422979D+00  0.157184D+00
     28  0.000000D+00  0.000000D+00  0.000000D+00  0.000000D+00  0.000000D+00
     29  0.000000D+00  0.161777D+00  0.000000D+00  0.000000D+00  0.000000D+00
     30  0.000000D+00  0.000000D+00  0.161777D+00  0.000000D+00  0.000000D+00
     31  0.763639D-01  0.000000D+00  0.907276D-01 -0.180002D+00  0.175266D-02
     32  0.267288D+00  0.000000D+00  0.193188D+00 -0.383281D+00  0.725281D-01
     33  0.763639D-01  0.000000D+00 -0.907276D-01 -0.180002D+00  0.175266D-02
     34  0.267288D+00  0.000000D+00 -0.193188D+00 -0.383281D+00  0.725281D-01
     35  0.373045D+00  0.000000D+00  0.445319D+00  0.257105D+00  0.114323D+00
     36  0.700001D+00  0.000000D+00  0.505939D+00  0.292104D+00  0.347622D+00
     37  0.373045D+00  0.000000D+00 -0.445319D+00  0.257105D+00  0.114323D+00
     38  0.700001D+00  0.000000D+00 -0.505939D+00  0.292104D+00  0.347622D+00
               11            12            13            14            15 
     11  0.100000D+01
     12  0.333333D+00  0.100000D+01
     13  0.000000D+00  0.000000D+00  0.100000D+01
     14  0.000000D+00  0.000000D+00  0.000000D+00  0.100000D+01
     15  0.000000D+00  0.000000D+00  0.000000D+00  0.000000D+00  0.100000D+01
     16  0.117244D-02  0.541589D-01  0.000000D+00  0.000000D+00  0.000000D+00
     17  0.944068D-01  0.337758D+00  0.000000D+00  0.000000D+00  0.000000D+00
     18  0.000000D+00  0.000000D+00  0.000000D+00 -0.186077D+00  0.000000D+00
     19  0.000000D+00  0.000000D+00  0.000000D+00  0.000000D+00 -0.186077D+00
     20  0.144086D+00  0.416241D+00  0.000000D+00  0.000000D+00  0.000000D+00
     21  0.257805D+00  0.354953D+00  0.000000D+00  0.000000D+00  0.000000D+00
     22  0.000000D+00  0.000000D+00  0.000000D+00 -0.161777D+00  0.000000D+00
     23  0.000000D+00  0.000000D+00  0.000000D+00  0.000000D+00 -0.161777D+00
     24  0.442889D+00  0.422979D+00  0.000000D+00  0.000000D+00  0.000000D+00
     25  0.256428D-01  0.157184D+00  0.000000D+00  0.000000D+00  0.000000D+00
     26  0.769283D-01  0.157184D+00  0.000000D+00  0.000000D+00  0.000000D+00
     27  0.157184D+00  0.488621D+00  0.000000D+00  0.000000D+00  0.000000D+00
     28  0.000000D+00  0.000000D+00  0.769283D-01  0.000000D+00  0.000000D+00
     29  0.000000D+00  0.000000D+00  0.000000D+00 -0.317696D+00  0.000000D+00
     30  0.000000D+00  0.000000D+00  0.000000D+00  0.000000D+00 -0.317696D+00
     31  0.501123D-02  0.145790D-01  0.000000D+00  0.000000D+00 -0.111976D-01
     32  0.852479D-01  0.122596D+00  0.000000D+00  0.000000D+00 -0.437099D-01
     33  0.501123D-02  0.145790D-01  0.000000D+00  0.000000D+00  0.111976D-01
     34  0.852479D-01  0.122596D+00  0.000000D+00  0.000000D+00  0.437099D-01
     35  0.364757D+00  0.197801D+00  0.000000D+00  0.000000D+00  0.250434D+00
     36  0.408587D+00  0.367943D+00  0.000000D+00  0.000000D+00  0.609651D-01
     37  0.364757D+00  0.197801D+00  0.000000D+00  0.000000D+00 -0.250434D+00
     38  0.408587D+00  0.367943D+00  0.000000D+00  0.000000D+00 -0.609651D-01
               16            17            18            19            20 
     16  0.100000D+01
     17  0.219059D+00  0.100000D+01
     18  0.000000D+00  0.000000D+00  0.100000D+01
     19  0.000000D+00  0.000000D+00  0.000000D+00  0.100000D+01
     20  0.000000D+00  0.000000D+00  0.000000D+00  0.000000D+00  0.100000D+01
     21  0.184261D+00  0.812273D+00  0.000000D+00  0.000000D+00  0.000000D+00
     22  0.000000D+00  0.000000D+00  0.569754D+00  0.000000D+00  0.000000D+00
     23  0.000000D+00  0.000000D+00  0.000000D+00  0.569754D+00  0.000000D+00
     24  0.000000D+00  0.000000D+00  0.000000D+00  0.000000D+00  0.569754D+00
     25  0.791027D-01  0.710235D+00  0.000000D+00  0.000000D+00  0.000000D+00
     26  0.791027D-01  0.710235D+00  0.000000D+00  0.000000D+00  0.000000D+00
     27  0.791027D-01  0.710235D+00  0.000000D+00  0.000000D+00  0.000000D+00
     28  0.000000D+00  0.000000D+00  0.000000D+00  0.000000D+00  0.000000D+00
     29  0.000000D+00  0.000000D+00  0.000000D+00  0.000000D+00  0.000000D+00
     30  0.000000D+00  0.000000D+00  0.000000D+00  0.000000D+00  0.000000D+00
     31  0.313253D-01  0.267431D+00  0.000000D+00  0.314378D+00 -0.181506D+00
     32  0.910859D-01  0.471617D+00  0.000000D+00  0.229962D+00 -0.132769D+00
     33  0.313253D-01  0.267431D+00  0.000000D+00 -0.314378D+00 -0.181506D+00
     34  0.910859D-01  0.471617D+00  0.000000D+00 -0.229962D+00 -0.132769D+00
     35  0.486885D-04  0.843701D-02  0.000000D+00  0.812187D-02  0.161137D-01
     36  0.147864D-01  0.112945D+00  0.000000D+00  0.522437D-01  0.103651D+00
     37  0.486885D-04  0.843701D-02  0.000000D+00 -0.812187D-02  0.161137D-01
     38  0.147864D-01  0.112945D+00  0.000000D+00 -0.522437D-01  0.103651D+00
               21            22            23            24            25 
     21  0.100000D+01
     22  0.000000D+00  0.100000D+01
     23  0.000000D+00  0.000000D+00  0.100000D+01
     24  0.000000D+00  0.000000D+00  0.000000D+00  0.100000D+01
     25  0.629936D+00  0.000000D+00  0.000000D+00  0.000000D+00  0.100000D+01
     26  0.629936D+00  0.000000D+00  0.000000D+00  0.000000D+00  0.333333D+00
     27  0.629936D+00  0.000000D+00  0.000000D+00  0.000000D+00  0.333333D+00
     28  0.000000D+00  0.000000D+00  0.000000D+00  0.000000D+00  0.000000D+00
     29  0.000000D+00  0.000000D+00  0.000000D+00  0.000000D+00  0.000000D+00
     30  0.000000D+00  0.000000D+00  0.000000D+00  0.000000D+00  0.000000D+00
     31  0.373045D+00  0.000000D+00  0.445319D+00 -0.257105D+00  0.114323D+00
     32  0.700001D+00  0.000000D+00  0.505939D+00 -0.292104D+00  0.347622D+00
     33  0.373045D+00  0.000000D+00 -0.445319D+00 -0.257105D+00  0.114323D+00
     34  0.700001D+00  0.000000D+00 -0.505939D+00 -0.292104D+00  0.347622D+00
     35  0.763639D-01  0.000000D+00  0.907276D-01  0.180002D+00  0.175266D-02
     36  0.267288D+00  0.000000D+00  0.193188D+00  0.383281D+00  0.725281D-01
     37  0.763639D-01  0.000000D+00 -0.907276D-01  0.180002D+00  0.175266D-02
     38  0.267288D+00  0.000000D+00 -0.193188D+00  0.383281D+00  0.725281D-01
               26            27            28            29            30 
     26  0.100000D+01
     27  0.333333D+00  0.100000D+01
     28  0.000000D+00  0.000000D+00  0.100000D+01
     29  0.000000D+00  0.000000D+00  0.000000D+00  0.100000D+01
     30  0.000000D+00  0.000000D+00  0.000000D+00  0.000000D+00  0.100000D+01
     31  0.364757D+00  0.197801D+00  0.000000D+00  0.000000D+00 -0.250434D+00
     32  0.408587D+00  0.367943D+00  0.000000D+00  0.000000D+00 -0.609651D-01
     33  0.364757D+00  0.197801D+00  0.000000D+00  0.000000D+00  0.250434D+00
     34  0.408587D+00  0.367943D+00  0.000000D+00  0.000000D+00  0.609651D-01
     35  0.501123D-02  0.145790D-01  0.000000D+00  0.000000D+00  0.111976D-01
     36  0.852479D-01  0.122596D+00  0.000000D+00  0.000000D+00  0.437099D-01
     37  0.501123D-02  0.145790D-01  0.000000D+00  0.000000D+00 -0.111976D-01
     38  0.852479D-01  0.122596D+00  0.000000D+00  0.000000D+00 -0.437099D-01
               31            32            33            34            35 
     31  0.100000D+01
     32  0.658292D+00  0.100000D+01
     33  0.107554D-01  0.120209D+00  0.100000D+01
     34  0.120209D+00  0.351580D+00  0.658292D+00  0.100000D+01
     35  0.738061D-03  0.406450D-01  0.115891D-04  0.750765D-02  0.100000D+01
     36  0.406450D-01  0.180065D+00  0.750765D-02  0.633071D-01  0.658292D+00
     37  0.115891D-04  0.750765D-02  0.738061D-03  0.406450D-01  0.107554D-01
     38  0.750765D-02  0.633071D-01  0.406450D-01  0.180065D+00  0.120209D+00
               36            37            38 
     36  0.100000D+01
     37  0.120209D+00  0.100000D+01
     38  0.351580D+00  0.658292D+00  0.100000D+01
 *** Kinetic Energy *** 
                1             2             3             4             5 
      1  0.162076D+02
      2 -0.124757D+01  0.932246D+00
      3  0.000000D+00  0.000000D+00  0.217833D+01
      4  0.000000D+00  0.000000D+00  0.000000D+00  0.217833D+01
      5  0.000000D+00  0.000000D+00  0.000000D+00  0.000000D+00  0.217833D+01
      6  0.899505D-01  0.306718D+00  0.000000D+00  0.000000D+00  0.000000D+00
      7  0.000000D+00  0.000000D+00  0.376673D+00  0.000000D+00  0.000000D+00
      8  0.000000D+00  0.000000D+00  0.000000D+00  0.376673D+00  0.000000D+00
      9  0.000000D+00  0.000000D+00  0.000000D+00  0.000000D+00  0.376673D+00
     10 -0.524817D+00  0.520042D+00  0.000000D+00  0.000000D+00  0.000000D+00
     11 -0.524817D+00  0.520042D+00  0.000000D+00  0.000000D+00  0.000000D+00
     12 -0.524817D+00  0.520042D+00  0.000000D+00  0.000000D+00  0.000000D+00
     13  0.000000D+00  0.000000D+00  0.000000D+00  0.000000D+00  0.000000D+00
     14  0.000000D+00  0.000000D+00  0.000000D+00  0.000000D+00  0.000000D+00
     15  0.000000D+00  0.000000D+00  0.000000D+00  0.000000D+00  0.000000D+00
     16 -0.145984D-03 -0.308452D-01  0.000000D+00  0.000000D+00  0.298636D-01
     17 -0.308452D-01 -0.547733D-02  0.000000D+00  0.000000D+00 -0.117674D+00
     18  0.000000D+00  0.000000D+00  0.341260D-01  0.000000D+00  0.000000D+00
     19  0.000000D+00  0.000000D+00  0.000000D+00  0.341260D-01  0.000000D+00
     20 -0.298636D-01  0.117674D+00  0.000000D+00  0.000000D+00 -0.347611D+00
     21  0.964342D-02  0.634008D-01  0.000000D+00  0.000000D+00 -0.110653D+00
     22  0.000000D+00  0.000000D+00  0.106386D+00  0.000000D+00  0.000000D+00
     23  0.000000D+00  0.000000D+00  0.000000D+00  0.106386D+00  0.000000D+00
     24  0.617059D-01  0.240907D+00  0.000000D+00  0.000000D+00 -0.182906D+00
     25 -0.123847D-01 -0.703779D-01  0.000000D+00  0.000000D+00  0.447538D-01
     26 -0.123847D-01 -0.703779D-01  0.000000D+00  0.000000D+00  0.447538D-01
     27 -0.756522D-01  0.189844D+00  0.000000D+00  0.000000D+00 -0.492210D+00
     28  0.000000D+00  0.000000D+00  0.000000D+00  0.000000D+00  0.000000D+00
     29  0.000000D+00  0.000000D+00  0.146991D+00  0.000000D+00  0.000000D+00
     30  0.000000D+00  0.000000D+00  0.000000D+00  0.146991D+00  0.000000D+00
     31 -0.388465D-03 -0.160844D-01  0.000000D+00 -0.115272D-01  0.228699D-01
     32 -0.456213D-02 -0.126699D-01  0.000000D+00  0.619563D-02 -0.122920D-01
     33 -0.388465D-03 -0.160844D-01  0.000000D+00  0.115272D-01  0.228699D-01
     34 -0.456213D-02 -0.126699D-01  0.000000D+00 -0.619563D-02 -0.122920D-01
     35 -0.347447D-01  0.373365D-01  0.000000D+00  0.196997D+00  0.113736D+00
     36  0.234592D-01  0.112252D+00  0.000000D+00  0.114019D+00  0.658288D-01
     37 -0.347447D-01  0.373365D-01  0.000000D+00 -0.196997D+00  0.113736D+00
     38  0.234592D-01  0.112252D+00  0.000000D+00 -0.114019D+00  0.658288D-01
                6             7             8             9            10 
      6  0.253072D+00
      7  0.000000D+00  0.421786D+00
      8  0.000000D+00  0.000000D+00  0.421786D+00
      9  0.000000D+00  0.000000D+00  0.000000D+00  0.421786D+00
     10  0.226288D+00  0.000000D+00  0.000000D+00  0.000000D+00  0.173333D+01
     11  0.226288D+00  0.000000D+00  0.000000D+00  0.000000D+00 -0.133333D+00
     12  0.226288D+00  0.000000D+00  0.000000D+00  0.000000D+00 -0.133333D+00
     13  0.000000D+00  0.000000D+00  0.000000D+00  0.000000D+00  0.000000D+00
     14  0.000000D+00  0.000000D+00  0.000000D+00  0.000000D+00  0.000000D+00
     15  0.000000D+00  0.000000D+00  0.000000D+00  0.000000D+00  0.000000D+00
     16  0.964342D-02  0.000000D+00  0.000000D+00 -0.617059D-01 -0.123847D-01
     17  0.634008D-01  0.000000D+00  0.000000D+00 -0.240907D+00 -0.703779D-01
     18  0.000000D+00  0.106386D+00  0.000000D+00  0.000000D+00  0.000000D+00
     19  0.000000D+00  0.000000D+00  0.106386D+00  0.000000D+00  0.000000D+00
     20  0.110653D+00  0.000000D+00  0.000000D+00 -0.182906D+00 -0.447538D-01
     21  0.942090D-01  0.000000D+00  0.000000D+00 -0.200156D+00  0.284265D-01
     22  0.000000D+00  0.192437D+00  0.000000D+00  0.000000D+00  0.000000D+00
     23  0.000000D+00  0.000000D+00  0.192437D+00  0.000000D+00  0.000000D+00
     24  0.200156D+00  0.000000D+00  0.000000D+00 -0.122014D+00  0.172251D+00
     25  0.284265D-01  0.000000D+00  0.000000D+00 -0.172251D+00 -0.245072D-01
     26  0.284265D-01  0.000000D+00  0.000000D+00 -0.172251D+00 -0.628736D-01
     27  0.989908D-01  0.000000D+00  0.000000D+00 -0.204296D+00 -0.697013D-01
     28  0.000000D+00  0.000000D+00  0.000000D+00  0.000000D+00  0.000000D+00
     29  0.000000D+00  0.117508D+00  0.000000D+00  0.000000D+00  0.000000D+00
     30  0.000000D+00  0.000000D+00  0.117508D+00  0.000000D+00  0.000000D+00
     31 -0.139522D-01  0.000000D+00  0.787624D-02 -0.156263D-01 -0.624220D-02
     32  0.797628D-02  0.000000D+00  0.376240D-01 -0.746455D-01 -0.165236D-01
     33 -0.139522D-01  0.000000D+00 -0.787624D-02 -0.156263D-01 -0.624220D-02
     34  0.797628D-02  0.000000D+00 -0.376240D-01 -0.746455D-01 -0.165236D-01
     35  0.924184D-01  0.000000D+00  0.232119D+00  0.134014D+00 -0.847534D-01
     36  0.132028D+00  0.000000D+00  0.178861D+00  0.103266D+00  0.670415D-01
     37  0.924184D-01  0.000000D+00 -0.232119D+00  0.134014D+00 -0.847534D-01
     38  0.132028D+00  0.000000D+00 -0.178861D+00  0.103266D+00  0.670415D-01
               11            12            13            14            15 
     11  0.173333D+01
     12 -0.133333D+00  0.173333D+01
     13  0.000000D+00  0.000000D+00  0.280000D+01
     14  0.000000D+00  0.000000D+00  0.000000D+00  0.280000D+01
     15  0.000000D+00  0.000000D+00  0.000000D+00  0.000000D+00  0.280000D+01
     16 -0.123847D-01 -0.756522D-01  0.000000D+00  0.000000D+00  0.000000D+00
     17 -0.703779D-01  0.189844D+00  0.000000D+00  0.000000D+00  0.000000D+00
     18  0.000000D+00  0.000000D+00  0.000000D+00 -0.146991D+00  0.000000D+00
     19  0.000000D+00  0.000000D+00  0.000000D+00  0.000000D+00 -0.146991D+00
     20 -0.447538D-01  0.492210D+00  0.000000D+00  0.000000D+00  0.000000D+00
     21  0.284265D-01  0.989908D-01  0.000000D+00  0.000000D+00  0.000000D+00
     22  0.000000D+00  0.000000D+00  0.000000D+00 -0.117508D+00  0.000000D+00
     23  0.000000D+00  0.000000D+00  0.000000D+00  0.000000D+00 -0.117508D+00
     24  0.172251D+00  0.204296D+00  0.000000D+00  0.000000D+00  0.000000D+00
     25 -0.628736D-01 -0.697013D-01  0.000000D+00  0.000000D+00  0.000000D+00
     26 -0.245072D-01 -0.697013D-01  0.000000D+00  0.000000D+00  0.000000D+00
     27 -0.697013D-01  0.731721D+00  0.000000D+00  0.000000D+00  0.000000D+00
     28  0.000000D+00  0.000000D+00  0.575496D-01  0.000000D+00  0.000000D+00
     29  0.000000D+00  0.000000D+00  0.000000D+00 -0.553366D+00  0.000000D+00
     30  0.000000D+00  0.000000D+00  0.000000D+00  0.000000D+00 -0.553366D+00
     31 -0.115121D-01 -0.269856D-01  0.000000D+00  0.000000D+00  0.181093D-01
     32 -0.119042D-01  0.165950D-02  0.000000D+00  0.000000D+00 -0.158742D-01
     33 -0.115121D-01 -0.269856D-01  0.000000D+00  0.000000D+00 -0.181093D-01
     34 -0.119042D-01  0.165950D-02  0.000000D+00  0.000000D+00  0.158742D-01
     35  0.246033D+00  0.255088D-01  0.000000D+00  0.000000D+00  0.330787D+00
     36  0.114829D+00  0.829707D-01  0.000000D+00  0.000000D+00  0.477876D-01
     37  0.246033D+00  0.255088D-01  0.000000D+00  0.000000D+00 -0.330787D+00
     38  0.114829D+00  0.829707D-01  0.000000D+00  0.000000D+00 -0.477876D-01
               16            17            18            19            20 
     16  0.162076D+02
     17 -0.124757D+01  0.932246D+00
     18  0.000000D+00  0.000000D+00  0.217833D+01
     19  0.000000D+00  0.000000D+00  0.000000D+00  0.217833D+01
     20  0.000000D+00  0.000000D+00  0.000000D+00  0.000000D+00  0.217833D+01
     21  0.899505D-01  0.306718D+00  0.000000D+00  0.000000D+00  0.000000D+00
     22  0.000000D+00  0.000000D+00  0.376673D+00  0.000000D+00  0.000000D+00
     23  0.000000D+00  0.000000D+00  0.000000D+00  0.376673D+00  0.000000D+00
     24  0.000000D+00  0.000000D+00  0.000000D+00  0.000000D+00  0.376673D+00
     25 -0.524817D+00  0.520042D+00  0.000000D+00  0.000000D+00  0.000000D+00
     26 -0.524817D+00  0.520042D+00  0.000000D+00  0.000000D+00  0.000000D+00
     27 -0.524817D+00  0.520042D+00  0.000000D+00  0.000000D+00  0.000000D+00
     28  0.000000D+00  0.000000D+00  0.000000D+00  0.000000D+00  0.000000D+00
     29  0.000000D+00  0.000000D+00  0.000000D+00  0.000000D+00  0.000000D+00
     30  0.000000D+00  0.000000D+00  0.000000D+00  0.000000D+00  0.000000D+00
     31 -0.347447D-01  0.373365D-01  0.000000D+00  0.196997D+00 -0.113736D+00
     32  0.234592D-01  0.112252D+00  0.000000D+00  0.114019D+00 -0.658288D-01
     33 -0.347447D-01  0.373365D-01  0.000000D+00 -0.196997D+00 -0.113736D+00
     34  0.234592D-01  0.112252D+00  0.000000D+00 -0.114019D+00 -0.658288D-01
     35 -0.388465D-03 -0.160844D-01  0.000000D+00 -0.115272D-01 -0.228699D-01
     36 -0.456213D-02 -0.126699D-01  0.000000D+00  0.619563D-02  0.122920D-01
     37 -0.388465D-03 -0.160844D-01  0.000000D+00  0.115272D-01 -0.228699D-01
     38 -0.456213D-02 -0.126699D-01  0.000000D+00 -0.619563D-02  0.122920D-01
               21            22            23            24            25 
     21  0.253072D+00
     22  0.000000D+00  0.421786D+00
     23  0.000000D+00  0.000000D+00  0.421786D+00
     24  0.000000D+00  0.000000D+00  0.000000D+00  0.421786D+00
     25  0.226288D+00  0.000000D+00  0.000000D+00  0.000000D+00  0.173333D+01
     26  0.226288D+00  0.000000D+00  0.000000D+00  0.000000D+00 -0.133333D+00
     27  0.226288D+00  0.000000D+00  0.000000D+00  0.000000D+00 -0.133333D+00
     28  0.000000D+00  0.000000D+00  0.000000D+00  0.000000D+00  0.000000D+00
     29  0.000000D+00  0.000000D+00  0.000000D+00  0.000000D+00  0.000000D+00
     30  0.000000D+00  0.000000D+00  0.000000D+00  0.000000D+00  0.000000D+00
     31  0.924184D-01  0.000000D+00  0.232119D+00 -0.134014D+00 -0.847534D-01
     32  0.132028D+00  0.000000D+00  0.178861D+00 -0.103266D+00  0.670415D-01
     33  0.924184D-01  0.000000D+00 -0.232119D+00 -0.134014D+00 -0.847534D-01
     34  0.132028D+00  0.000000D+00 -0.178861D+00 -0.103266D+00  0.670415D-01
     35 -0.139522D-01  0.000000D+00  0.787624D-02  0.156263D-01 -0.624220D-02
     36  0.797628D-02  0.000000D+00  0.376240D-01  0.746455D-01 -0.165236D-01
     37 -0.139522D-01  0.000000D+00 -0.787624D-02  0.156263D-01 -0.624220D-02
     38  0.797628D-02  0.000000D+00 -0.376240D-01  0.746455D-01 -0.165236D-01
               26            27            28            29            30 
     26  0.173333D+01
     27 -0.133333D+00  0.173333D+01
     28  0.000000D+00  0.000000D+00  0.280000D+01
     29  0.000000D+00  0.000000D+00  0.000000D+00  0.280000D+01
     30  0.000000D+00  0.000000D+00  0.000000D+00  0.000000D+00  0.280000D+01
     31  0.246033D+00  0.255088D-01  0.000000D+00  0.000000D+00 -0.330787D+00
     32  0.114829D+00  0.829707D-01  0.000000D+00  0.000000D+00 -0.477876D-01
     33  0.246033D+00  0.255088D-01  0.000000D+00  0.000000D+00  0.330787D+00
     34  0.114829D+00  0.829707D-01  0.000000D+00  0.000000D+00  0.477876D-01
     35 -0.115121D-01 -0.269856D-01  0.000000D+00  0.000000D+00 -0.181093D-01
     36 -0.119042D-01  0.165950D-02  0.000000D+00  0.000000D+00  0.158742D-01
     37 -0.115121D-01 -0.269856D-01  0.000000D+00  0.000000D+00  0.181093D-01
     38 -0.119042D-01  0.165950D-02  0.000000D+00  0.000000D+00 -0.158742D-01
               31            32            33            34            35 
     31  0.139568D+01
     32  0.259735D+00  0.241917D+00
     33 -0.194064D-01 -0.631553D-02  0.139568D+01
     34 -0.631553D-02  0.257813D-01  0.259735D+00  0.241917D+00
     35 -0.253270D-02 -0.135910D-01 -0.701820D-04 -0.578087D-02  0.139568D+01
     36 -0.135910D-01 -0.622739D-02 -0.578087D-02 -0.128622D-01  0.259735D+00
     37 -0.701820D-04 -0.578087D-02 -0.253270D-02 -0.135910D-01 -0.194064D-01
     38 -0.578087D-02 -0.128622D-01 -0.135910D-01 -0.622739D-02 -0.631553D-02
               36            37            38 
     36  0.241917D+00
     37 -0.631553D-02  0.139568D+01
     38  0.257813D-01  0.259735D+00  0.241917D+00
 Entering OneElI...
 Calculate potential energy integrals
    NBasis =  38  MinDer = 0  MaxDer = 0
 Requested accuracy = 0.1000D-12
 Symmetry will be used
 PrsmSu:  NPrtUS=   4 ThrOK=T IAlg=1
 PRISM was handed    39312276 working-precision words and   136 shell-pairs
 PRISM was handed    39312276 working-precision words and   136 shell-pairs
 PRISM was handed    39312276 working-precision words and   136 shell-pairs
 PRISM was handed    39312276 working-precision words and   136 shell-pairs
 IPart=  2 NShTot=          24 NBatch=           4 AvBLen=         6.0
 IPart=  0 NShTot=         150 NBatch=          25 AvBLen=         6.0
 IPart=  1 NShTot=          96 NBatch=          16 AvBLen=         6.0
 IPart=  3 NShTot=          18 NBatch=           3 AvBLen=         6.0
 ***** Potential Energy ***** 
                1             2             3             4             5 
      1  0.379844D+02
      2  0.325222D+01  0.954980D+01
      3  0.000000D+00  0.000000D+00  0.986981D+01
      4  0.000000D+00  0.000000D+00  0.000000D+00  0.100304D+02
      5 -0.773762D-01 -0.560900D+00  0.000000D+00  0.000000D+00  0.103096D+02
      6  0.395891D+01  0.723167D+01  0.000000D+00  0.000000D+00 -0.564930D+00
      7  0.000000D+00  0.000000D+00  0.434439D+01  0.000000D+00  0.000000D+00
      8  0.000000D+00  0.000000D+00  0.000000D+00  0.448360D+01  0.000000D+00
      9 -0.129987D-01 -0.408934D+00  0.000000D+00  0.000000D+00  0.478075D+01
     10  0.112195D+01  0.611695D+01  0.000000D+00  0.000000D+00 -0.230392D+00
     11  0.112639D+01  0.625416D+01  0.000000D+00  0.000000D+00 -0.173001D+00
     12  0.113347D+01  0.648500D+01  0.000000D+00  0.000000D+00 -0.919335D+00
     13  0.000000D+00  0.000000D+00  0.000000D+00  0.000000D+00  0.000000D+00
     14  0.000000D+00  0.000000D+00 -0.399050D+00  0.000000D+00  0.000000D+00
     15  0.000000D+00  0.000000D+00  0.000000D+00 -0.299646D+00  0.000000D+00
     16  0.570231D-04  0.397324D+00  0.000000D+00  0.000000D+00 -0.898140D+00
     17  0.397324D+00  0.202438D+01  0.000000D+00  0.000000D+00 -0.285125D+01
     18  0.000000D+00  0.000000D+00  0.102770D+01  0.000000D+00  0.000000D+00
     19  0.000000D+00  0.000000D+00  0.000000D+00  0.103691D+01  0.000000D+00
     20  0.898140D+00  0.285125D+01  0.000000D+00  0.000000D+00 -0.343635D+01
     21  0.137949D+01  0.333318D+01  0.000000D+00  0.000000D+00 -0.249493D+01
     22  0.000000D+00  0.000000D+00  0.189983D+01  0.000000D+00  0.000000D+00
     23  0.000000D+00  0.000000D+00  0.000000D+00  0.193833D+01  0.000000D+00
     24  0.280040D+01  0.513851D+01  0.000000D+00  0.000000D+00 -0.179255D+01
     25  0.147392D-01  0.824920D+00  0.000000D+00  0.000000D+00 -0.127641D+01
     26  0.147796D-01  0.831698D+00  0.000000D+00  0.000000D+00 -0.128758D+01
     27  0.107949D+01  0.340224D+01  0.000000D+00  0.000000D+00 -0.425577D+01
     28  0.000000D+00  0.000000D+00  0.000000D+00  0.000000D+00  0.000000D+00
     29  0.000000D+00  0.000000D+00  0.165834D+01  0.000000D+00  0.000000D+00
     30  0.000000D+00  0.000000D+00  0.000000D+00  0.166914D+01  0.000000D+00
     31  0.745027D-03  0.759173D-01  0.000000D+00  0.630686D-01 -0.147164D+00
     32  0.308513D+00  0.102079D+01  0.000000D+00  0.404250D+00 -0.980708D+00
     33  0.745027D-03  0.759173D-01  0.000000D+00 -0.630686D-01 -0.147164D+00
     34  0.308513D+00  0.102079D+01  0.000000D+00 -0.404250D+00 -0.980708D+00
     35  0.623398D+00  0.214473D+01  0.000000D+00  0.243391D+01  0.134914D+01
     36  0.193497D+01  0.398924D+01  0.000000D+00  0.174630D+01  0.752717D+00
     37  0.623398D+00  0.214473D+01  0.000000D+00 -0.243391D+01  0.134914D+01
     38  0.193497D+01  0.398924D+01  0.000000D+00 -0.174630D+01  0.752717D+00
                6             7             8             9            10 
      6  0.759064D+01
      7  0.000000D+00  0.561501D+01
      8  0.000000D+00  0.000000D+00  0.585471D+01
      9 -0.845548D+00  0.000000D+00  0.000000D+00  0.660658D+01
     10  0.500998D+01  0.000000D+00  0.000000D+00 -0.176481D+00  0.804189D+01
     11  0.515675D+01  0.000000D+00  0.000000D+00 -0.121337D+00  0.271588D+01
     12  0.543099D+01  0.000000D+00  0.000000D+00 -0.796970D+00  0.278616D+01
     13  0.000000D+00  0.000000D+00  0.000000D+00  0.000000D+00  0.000000D+00
     14  0.000000D+00 -0.305674D+00  0.000000D+00  0.000000D+00  0.000000D+00
     15  0.000000D+00  0.000000D+00 -0.210162D+00  0.000000D+00  0.000000D+00
     16  0.137949D+01  0.000000D+00  0.000000D+00 -0.280040D+01  0.147392D-01
     17  0.333318D+01  0.000000D+00  0.000000D+00 -0.513851D+01  0.824920D+00
     18  0.000000D+00  0.189983D+01  0.000000D+00  0.000000D+00  0.000000D+00
     19  0.000000D+00  0.000000D+00  0.193833D+01  0.000000D+00  0.000000D+00
     20  0.249493D+01  0.000000D+00  0.000000D+00 -0.179255D+01  0.127641D+01
     21  0.465536D+01  0.000000D+00  0.000000D+00 -0.484209D+01  0.209412D+01
     22  0.000000D+00  0.341974D+01  0.000000D+00  0.000000D+00  0.000000D+00
     23  0.000000D+00  0.000000D+00  0.352491D+01  0.000000D+00  0.000000D+00
     24  0.484209D+01  0.000000D+00  0.000000D+00 -0.766191D+00  0.358140D+01
     25  0.209412D+01  0.000000D+00  0.000000D+00 -0.358140D+01  0.621689D+00
     26  0.213363D+01  0.000000D+00  0.000000D+00 -0.366538D+01  0.208419D+00
     27  0.338732D+01  0.000000D+00  0.000000D+00 -0.384655D+01  0.143230D+01
     28  0.000000D+00  0.000000D+00  0.000000D+00  0.000000D+00  0.000000D+00
     29  0.000000D+00  0.134206D+01  0.000000D+00  0.000000D+00  0.000000D+00
     30  0.000000D+00  0.000000D+00  0.133897D+01  0.000000D+00  0.000000D+00
     31  0.562603D+00  0.000000D+00  0.592738D+00 -0.130088D+01  0.142679D-01
     32  0.198673D+01  0.000000D+00  0.111179D+01 -0.278274D+01  0.582484D+00
     33  0.562603D+00  0.000000D+00 -0.592738D+00 -0.130088D+01  0.142679D-01
     34  0.198673D+01  0.000000D+00 -0.111179D+01 -0.278274D+01  0.582484D+00
     35  0.257112D+01  0.000000D+00  0.279632D+01  0.155840D+01  0.877720D+00
     36  0.471937D+01  0.000000D+00  0.272999D+01  0.119394D+01  0.268207D+01
     37  0.257112D+01  0.000000D+00 -0.279632D+01  0.155840D+01  0.877720D+00
     38  0.471937D+01  0.000000D+00 -0.272999D+01  0.119394D+01  0.268207D+01
               11            12            13            14            15 
     11  0.834001D+01
     12  0.285127D+01  0.888295D+01
     13  0.000000D+00  0.000000D+00  0.814765D+01
     14  0.000000D+00  0.000000D+00  0.000000D+00  0.835849D+01
     15  0.000000D+00  0.000000D+00  0.000000D+00  0.000000D+00  0.855382D+01
     16  0.147796D-01  0.107949D+01  0.000000D+00  0.000000D+00  0.000000D+00
     17  0.831698D+00  0.340224D+01  0.000000D+00  0.000000D+00  0.000000D+00
     18  0.000000D+00  0.000000D+00  0.000000D+00 -0.165834D+01  0.000000D+00
     19  0.000000D+00  0.000000D+00  0.000000D+00  0.000000D+00 -0.166914D+01
     20  0.128758D+01  0.425577D+01  0.000000D+00  0.000000D+00  0.000000D+00
     21  0.213363D+01  0.338732D+01  0.000000D+00  0.000000D+00  0.000000D+00
     22  0.000000D+00  0.000000D+00  0.000000D+00 -0.134206D+01  0.000000D+00
     23  0.000000D+00  0.000000D+00  0.000000D+00  0.000000D+00 -0.133897D+01
     24  0.366538D+01  0.384655D+01  0.000000D+00  0.000000D+00  0.000000D+00
     25  0.208419D+00  0.143230D+01  0.000000D+00  0.000000D+00  0.000000D+00
     26  0.629530D+00  0.144211D+01  0.000000D+00  0.000000D+00  0.000000D+00
     27  0.144211D+01  0.491706D+01  0.000000D+00  0.000000D+00  0.000000D+00
     28  0.000000D+00  0.000000D+00  0.625258D+00  0.000000D+00  0.000000D+00
     29  0.000000D+00  0.000000D+00  0.000000D+00 -0.282616D+01  0.000000D+00
     30  0.000000D+00  0.000000D+00  0.000000D+00  0.000000D+00 -0.284153D+01
     31  0.387591D-01  0.142450D+00  0.000000D+00  0.000000D+00 -0.924635D-01
     32  0.683469D+00  0.117321D+01  0.000000D+00  0.000000D+00 -0.354070D+00
     33  0.387591D-01  0.142450D+00  0.000000D+00  0.000000D+00  0.924635D-01
     34  0.683469D+00  0.117321D+01  0.000000D+00  0.000000D+00  0.354070D+00
     35  0.278362D+01  0.148316D+01  0.000000D+00  0.000000D+00  0.182855D+01
     36  0.320994D+01  0.293741D+01  0.000000D+00  0.000000D+00  0.367722D+00
     37  0.278362D+01  0.148316D+01  0.000000D+00  0.000000D+00 -0.182855D+01
     38  0.320994D+01  0.293741D+01  0.000000D+00  0.000000D+00 -0.367722D+00
               16            17            18            19            20 
     16  0.379844D+02
     17  0.325222D+01  0.954980D+01
     18  0.000000D+00  0.000000D+00  0.986981D+01
     19  0.000000D+00  0.000000D+00  0.000000D+00  0.100304D+02
     20  0.773762D-01  0.560900D+00  0.000000D+00  0.000000D+00  0.103096D+02
     21  0.395891D+01  0.723167D+01  0.000000D+00  0.000000D+00  0.564930D+00
     22  0.000000D+00  0.000000D+00  0.434439D+01  0.000000D+00  0.000000D+00
     23  0.000000D+00  0.000000D+00  0.000000D+00  0.448360D+01  0.000000D+00
     24  0.129987D-01  0.408934D+00  0.000000D+00  0.000000D+00  0.478075D+01
     25  0.112195D+01  0.611695D+01  0.000000D+00  0.000000D+00  0.230392D+00
     26  0.112639D+01  0.625416D+01  0.000000D+00  0.000000D+00  0.173001D+00
     27  0.113347D+01  0.648500D+01  0.000000D+00  0.000000D+00  0.919335D+00
     28  0.000000D+00  0.000000D+00  0.000000D+00  0.000000D+00  0.000000D+00
     29  0.000000D+00  0.000000D+00  0.399050D+00  0.000000D+00  0.000000D+00
     30  0.000000D+00  0.000000D+00  0.000000D+00  0.299646D+00  0.000000D+00
     31  0.623398D+00  0.214473D+01  0.000000D+00  0.243391D+01 -0.134914D+01
     32  0.193497D+01  0.398924D+01  0.000000D+00  0.174630D+01 -0.752717D+00
     33  0.623398D+00  0.214473D+01  0.000000D+00 -0.243391D+01 -0.134914D+01
     34  0.193497D+01  0.398924D+01  0.000000D+00 -0.174630D+01 -0.752717D+00
     35  0.745027D-03  0.759173D-01  0.000000D+00  0.630686D-01  0.147164D+00
     36  0.308513D+00  0.102079D+01  0.000000D+00  0.404250D+00  0.980708D+00
     37  0.745027D-03  0.759173D-01  0.000000D+00 -0.630686D-01  0.147164D+00
     38  0.308513D+00  0.102079D+01  0.000000D+00 -0.404250D+00  0.980708D+00
               21            22            23            24            25 
     21  0.759064D+01
     22  0.000000D+00  0.561501D+01
     23  0.000000D+00  0.000000D+00  0.585471D+01
     24  0.845548D+00  0.000000D+00  0.000000D+00  0.660658D+01
     25  0.500998D+01  0.000000D+00  0.000000D+00  0.176481D+00  0.804189D+01
     26  0.515675D+01  0.000000D+00  0.000000D+00  0.121337D+00  0.271588D+01
     27  0.543099D+01  0.000000D+00  0.000000D+00  0.796970D+00  0.278616D+01
     28  0.000000D+00  0.000000D+00  0.000000D+00  0.000000D+00  0.000000D+00
     29  0.000000D+00  0.305674D+00  0.000000D+00  0.000000D+00  0.000000D+00
     30  0.000000D+00  0.000000D+00  0.210162D+00  0.000000D+00  0.000000D+00
     31  0.257112D+01  0.000000D+00  0.279632D+01 -0.155840D+01  0.877720D+00
     32  0.471937D+01  0.000000D+00  0.272999D+01 -0.119394D+01  0.268207D+01
     33  0.257112D+01  0.000000D+00 -0.279632D+01 -0.155840D+01  0.877720D+00
     34  0.471937D+01  0.000000D+00 -0.272999D+01 -0.119394D+01  0.268207D+01
     35  0.562603D+00  0.000000D+00  0.592738D+00  0.130088D+01  0.142679D-01
     36  0.198673D+01  0.000000D+00  0.111179D+01  0.278274D+01  0.582484D+00
     37  0.562603D+00  0.000000D+00 -0.592738D+00  0.130088D+01  0.142679D-01
     38  0.198673D+01  0.000000D+00 -0.111179D+01  0.278274D+01  0.582484D+00
               26            27            28            29            30 
     26  0.834001D+01
     27  0.285127D+01  0.888295D+01
     28  0.000000D+00  0.000000D+00  0.814765D+01
     29  0.000000D+00  0.000000D+00  0.000000D+00  0.835849D+01
     30  0.000000D+00  0.000000D+00  0.000000D+00  0.000000D+00  0.855382D+01
     31  0.278362D+01  0.148316D+01  0.000000D+00  0.000000D+00 -0.182855D+01
     32  0.320994D+01  0.293741D+01  0.000000D+00  0.000000D+00 -0.367722D+00
     33  0.278362D+01  0.148316D+01  0.000000D+00  0.000000D+00  0.182855D+01
     34  0.320994D+01  0.293741D+01  0.000000D+00  0.000000D+00  0.367722D+00
     35  0.387591D-01  0.142450D+00  0.000000D+00  0.000000D+00  0.924635D-01
     36  0.683469D+00  0.117321D+01  0.000000D+00  0.000000D+00  0.354070D+00
     37  0.387591D-01  0.142450D+00  0.000000D+00  0.000000D+00 -0.924635D-01
     38  0.683469D+00  0.117321D+01  0.000000D+00  0.000000D+00 -0.354070D+00
               31            32            33            34            35 
     31  0.670367D+01
     32  0.405375D+01  0.541568D+01
     33  0.901944D-01  0.846598D+00  0.670367D+01
     34  0.846598D+00  0.227294D+01  0.405375D+01  0.541568D+01
     35  0.500890D-02  0.273186D+00  0.120983D-03  0.616249D-01  0.670367D+01
     36  0.273186D+00  0.113647D+01  0.616249D-01  0.499441D+00  0.405375D+01
     37  0.120983D-03  0.616249D-01  0.500890D-02  0.273186D+00  0.901944D-01
     38  0.616249D-01  0.499441D+00  0.273186D+00  0.113647D+01  0.846598D+00
               36            37            38 
     36  0.541568D+01
     37  0.846598D+00  0.670367D+01
     38  0.227294D+01  0.405375D+01  0.541568D+01
 ****** Core Hamiltonian ****** 
                1             2             3             4             5 
      1 -0.217768D+02
      2 -0.449979D+01 -0.861755D+01
      3  0.000000D+00  0.000000D+00 -0.769147D+01
      4  0.000000D+00  0.000000D+00  0.000000D+00 -0.785209D+01
      5  0.773762D-01  0.560900D+00  0.000000D+00  0.000000D+00 -0.813125D+01
      6 -0.386896D+01 -0.692495D+01  0.000000D+00  0.000000D+00  0.564930D+00
      7  0.000000D+00  0.000000D+00 -0.396772D+01  0.000000D+00  0.000000D+00
      8  0.000000D+00  0.000000D+00  0.000000D+00 -0.410693D+01  0.000000D+00
      9  0.129987D-01  0.408934D+00  0.000000D+00  0.000000D+00 -0.440408D+01
     10 -0.164677D+01 -0.559691D+01  0.000000D+00  0.000000D+00  0.230392D+00
     11 -0.165120D+01 -0.573412D+01  0.000000D+00  0.000000D+00  0.173001D+00
     12 -0.165828D+01 -0.596496D+01  0.000000D+00  0.000000D+00  0.919335D+00
     13  0.000000D+00  0.000000D+00  0.000000D+00  0.000000D+00  0.000000D+00
     14  0.000000D+00  0.000000D+00  0.399050D+00  0.000000D+00  0.000000D+00
     15  0.000000D+00  0.000000D+00  0.000000D+00  0.299646D+00  0.000000D+00
     16 -0.203007D-03 -0.428169D+00  0.000000D+00  0.000000D+00  0.928004D+00
     17 -0.428169D+00 -0.202985D+01  0.000000D+00  0.000000D+00  0.273358D+01
     18  0.000000D+00  0.000000D+00 -0.993574D+00  0.000000D+00  0.000000D+00
     19  0.000000D+00  0.000000D+00  0.000000D+00 -0.100278D+01  0.000000D+00
     20 -0.928004D+00 -0.273358D+01  0.000000D+00  0.000000D+00  0.308873D+01
     21 -0.136984D+01 -0.326978D+01  0.000000D+00  0.000000D+00  0.238428D+01
     22  0.000000D+00  0.000000D+00 -0.179345D+01  0.000000D+00  0.000000D+00
     23  0.000000D+00  0.000000D+00  0.000000D+00 -0.183194D+01  0.000000D+00
     24 -0.273869D+01 -0.489760D+01  0.000000D+00  0.000000D+00  0.160965D+01
     25 -0.271239D-01 -0.895298D+00  0.000000D+00  0.000000D+00  0.132116D+01
     26 -0.271643D-01 -0.902076D+00  0.000000D+00  0.000000D+00  0.133234D+01
     27 -0.115514D+01 -0.321239D+01  0.000000D+00  0.000000D+00  0.376356D+01
     28  0.000000D+00  0.000000D+00  0.000000D+00  0.000000D+00  0.000000D+00
     29  0.000000D+00  0.000000D+00 -0.151135D+01  0.000000D+00  0.000000D+00
     30  0.000000D+00  0.000000D+00  0.000000D+00 -0.152215D+01  0.000000D+00
     31 -0.113349D-02 -0.920017D-01  0.000000D+00 -0.745959D-01  0.170034D+00
     32 -0.313075D+00 -0.103346D+01  0.000000D+00 -0.398054D+00  0.968416D+00
     33 -0.113349D-02 -0.920017D-01  0.000000D+00  0.745959D-01  0.170034D+00
     34 -0.313075D+00 -0.103346D+01  0.000000D+00  0.398054D+00  0.968416D+00
     35 -0.658143D+00 -0.210739D+01  0.000000D+00 -0.223691D+01 -0.123540D+01
     36 -0.191151D+01 -0.387699D+01  0.000000D+00 -0.163228D+01 -0.686888D+00
     37 -0.658143D+00 -0.210739D+01  0.000000D+00  0.223691D+01 -0.123540D+01
     38 -0.191151D+01 -0.387699D+01  0.000000D+00  0.163228D+01 -0.686888D+00
                6             7             8             9            10 
      6 -0.733757D+01
      7  0.000000D+00 -0.519322D+01
      8  0.000000D+00  0.000000D+00 -0.543292D+01
      9  0.845548D+00  0.000000D+00  0.000000D+00 -0.618480D+01
     10 -0.478369D+01  0.000000D+00  0.000000D+00  0.176481D+00 -0.630855D+01
     11 -0.493046D+01  0.000000D+00  0.000000D+00  0.121337D+00 -0.284922D+01
     12 -0.520470D+01  0.000000D+00  0.000000D+00  0.796970D+00 -0.291950D+01
     13  0.000000D+00  0.000000D+00  0.000000D+00  0.000000D+00  0.000000D+00
     14  0.000000D+00  0.305674D+00  0.000000D+00  0.000000D+00  0.000000D+00
     15  0.000000D+00  0.000000D+00  0.210162D+00  0.000000D+00  0.000000D+00
     16 -0.136984D+01  0.000000D+00  0.000000D+00  0.273869D+01 -0.271239D-01
     17 -0.326978D+01  0.000000D+00  0.000000D+00  0.489760D+01 -0.895298D+00
     18  0.000000D+00 -0.179345D+01  0.000000D+00  0.000000D+00  0.000000D+00
     19  0.000000D+00  0.000000D+00 -0.183194D+01  0.000000D+00  0.000000D+00
     20 -0.238428D+01  0.000000D+00  0.000000D+00  0.160965D+01 -0.132116D+01
     21 -0.456115D+01  0.000000D+00  0.000000D+00  0.464193D+01 -0.206570D+01
     22  0.000000D+00 -0.322731D+01  0.000000D+00  0.000000D+00  0.000000D+00
     23  0.000000D+00  0.000000D+00 -0.333247D+01  0.000000D+00  0.000000D+00
     24 -0.464193D+01  0.000000D+00  0.000000D+00  0.644178D+00 -0.340915D+01
     25 -0.206570D+01  0.000000D+00  0.000000D+00  0.340915D+01 -0.646196D+00
     26 -0.210521D+01  0.000000D+00  0.000000D+00  0.349313D+01 -0.271293D+00
     27 -0.328832D+01  0.000000D+00  0.000000D+00  0.364226D+01 -0.150200D+01
     28  0.000000D+00  0.000000D+00  0.000000D+00  0.000000D+00  0.000000D+00
     29  0.000000D+00 -0.122455D+01  0.000000D+00  0.000000D+00  0.000000D+00
     30  0.000000D+00  0.000000D+00 -0.122146D+01  0.000000D+00  0.000000D+00
     31 -0.576555D+00  0.000000D+00 -0.584862D+00  0.128526D+01 -0.205101D-01
     32 -0.197876D+01  0.000000D+00 -0.107417D+01  0.270809D+01 -0.599007D+00
     33 -0.576555D+00  0.000000D+00  0.584862D+00  0.128526D+01 -0.205101D-01
     34 -0.197876D+01  0.000000D+00  0.107417D+01  0.270809D+01 -0.599007D+00
     35 -0.247870D+01  0.000000D+00 -0.256420D+01 -0.142439D+01 -0.962473D+00
     36 -0.458734D+01  0.000000D+00 -0.255113D+01 -0.109067D+01 -0.261503D+01
     37 -0.247870D+01  0.000000D+00  0.256420D+01 -0.142439D+01 -0.962473D+00
     38 -0.458734D+01  0.000000D+00  0.255113D+01 -0.109067D+01 -0.261503D+01
               11            12            13            14            15 
     11 -0.660668D+01
     12 -0.298461D+01 -0.714962D+01
     13  0.000000D+00  0.000000D+00 -0.534765D+01
     14  0.000000D+00  0.000000D+00  0.000000D+00 -0.555849D+01
     15  0.000000D+00  0.000000D+00  0.000000D+00  0.000000D+00 -0.575382D+01
     16 -0.271643D-01 -0.115514D+01  0.000000D+00  0.000000D+00  0.000000D+00
     17 -0.902076D+00 -0.321239D+01  0.000000D+00  0.000000D+00  0.000000D+00
     18  0.000000D+00  0.000000D+00  0.000000D+00  0.151135D+01  0.000000D+00
     19  0.000000D+00  0.000000D+00  0.000000D+00  0.000000D+00  0.152215D+01
     20 -0.133234D+01 -0.376356D+01  0.000000D+00  0.000000D+00  0.000000D+00
     21 -0.210521D+01 -0.328832D+01  0.000000D+00  0.000000D+00  0.000000D+00
     22  0.000000D+00  0.000000D+00  0.000000D+00  0.122455D+01  0.000000D+00
     23  0.000000D+00  0.000000D+00  0.000000D+00  0.000000D+00  0.122146D+01
     24 -0.349313D+01 -0.364226D+01  0.000000D+00  0.000000D+00  0.000000D+00
     25 -0.271293D+00 -0.150200D+01  0.000000D+00  0.000000D+00  0.000000D+00
     26 -0.654038D+00 -0.151181D+01  0.000000D+00  0.000000D+00  0.000000D+00
     27 -0.151181D+01 -0.418534D+01  0.000000D+00  0.000000D+00  0.000000D+00
     28  0.000000D+00  0.000000D+00 -0.567708D+00  0.000000D+00  0.000000D+00
     29  0.000000D+00  0.000000D+00  0.000000D+00  0.227280D+01  0.000000D+00
     30  0.000000D+00  0.000000D+00  0.000000D+00  0.000000D+00  0.228816D+01
     31 -0.502713D-01 -0.169436D+00  0.000000D+00  0.000000D+00  0.110573D+00
     32 -0.695373D+00 -0.117155D+01  0.000000D+00  0.000000D+00  0.338196D+00
     33 -0.502713D-01 -0.169436D+00  0.000000D+00  0.000000D+00 -0.110573D+00
     34 -0.695373D+00 -0.117155D+01  0.000000D+00  0.000000D+00 -0.338196D+00
     35 -0.253759D+01 -0.145766D+01  0.000000D+00  0.000000D+00 -0.149777D+01
     36 -0.309511D+01 -0.285444D+01  0.000000D+00  0.000000D+00 -0.319934D+00
     37 -0.253759D+01 -0.145766D+01  0.000000D+00  0.000000D+00  0.149777D+01
     38 -0.309511D+01 -0.285444D+01  0.000000D+00  0.000000D+00  0.319934D+00
               16            17            18            19            20 
     16 -0.217768D+02
     17 -0.449979D+01 -0.861755D+01
     18  0.000000D+00  0.000000D+00 -0.769147D+01
     19  0.000000D+00  0.000000D+00  0.000000D+00 -0.785209D+01
     20 -0.773762D-01 -0.560900D+00  0.000000D+00  0.000000D+00 -0.813125D+01
     21 -0.386896D+01 -0.692495D+01  0.000000D+00  0.000000D+00 -0.564930D+00
     22  0.000000D+00  0.000000D+00 -0.396772D+01  0.000000D+00  0.000000D+00
     23  0.000000D+00  0.000000D+00  0.000000D+00 -0.410693D+01  0.000000D+00
     24 -0.129987D-01 -0.408934D+00  0.000000D+00  0.000000D+00 -0.440408D+01
     25 -0.164677D+01 -0.559691D+01  0.000000D+00  0.000000D+00 -0.230392D+00
     26 -0.165120D+01 -0.573412D+01  0.000000D+00  0.000000D+00 -0.173001D+00
     27 -0.165828D+01 -0.596496D+01  0.000000D+00  0.000000D+00 -0.919335D+00
     28  0.000000D+00  0.000000D+00  0.000000D+00  0.000000D+00  0.000000D+00
     29  0.000000D+00  0.000000D+00 -0.399050D+00  0.000000D+00  0.000000D+00
     30  0.000000D+00  0.000000D+00  0.000000D+00 -0.299646D+00  0.000000D+00
     31 -0.658143D+00 -0.210739D+01  0.000000D+00 -0.223691D+01  0.123540D+01
     32 -0.191151D+01 -0.387699D+01  0.000000D+00 -0.163228D+01  0.686888D+00
     33 -0.658143D+00 -0.210739D+01  0.000000D+00  0.223691D+01  0.123540D+01
     34 -0.191151D+01 -0.387699D+01  0.000000D+00  0.163228D+01  0.686888D+00
     35 -0.113349D-02 -0.920017D-01  0.000000D+00 -0.745959D-01 -0.170034D+00
     36 -0.313075D+00 -0.103346D+01  0.000000D+00 -0.398054D+00 -0.968416D+00
     37 -0.113349D-02 -0.920017D-01  0.000000D+00  0.745959D-01 -0.170034D+00
     38 -0.313075D+00 -0.103346D+01  0.000000D+00  0.398054D+00 -0.968416D+00
               21            22            23            24            25 
     21 -0.733757D+01
     22  0.000000D+00 -0.519322D+01
     23  0.000000D+00  0.000000D+00 -0.543292D+01
     24 -0.845548D+00  0.000000D+00  0.000000D+00 -0.618480D+01
     25 -0.478369D+01  0.000000D+00  0.000000D+00 -0.176481D+00 -0.630855D+01
     26 -0.493046D+01  0.000000D+00  0.000000D+00 -0.121337D+00 -0.284922D+01
     27 -0.520470D+01  0.000000D+00  0.000000D+00 -0.796970D+00 -0.291950D+01
     28  0.000000D+00  0.000000D+00  0.000000D+00  0.000000D+00  0.000000D+00
     29  0.000000D+00 -0.305674D+00  0.000000D+00  0.000000D+00  0.000000D+00
     30  0.000000D+00  0.000000D+00 -0.210162D+00  0.000000D+00  0.000000D+00
     31 -0.247870D+01  0.000000D+00 -0.256420D+01  0.142439D+01 -0.962473D+00
     32 -0.458734D+01  0.000000D+00 -0.255113D+01  0.109067D+01 -0.261503D+01
     33 -0.247870D+01  0.000000D+00  0.256420D+01  0.142439D+01 -0.962473D+00
     34 -0.458734D+01  0.000000D+00  0.255113D+01  0.109067D+01 -0.261503D+01
     35 -0.576555D+00  0.000000D+00 -0.584862D+00 -0.128526D+01 -0.205101D-01
     36 -0.197876D+01  0.000000D+00 -0.107417D+01 -0.270809D+01 -0.599007D+00
     37 -0.576555D+00  0.000000D+00  0.584862D+00 -0.128526D+01 -0.205101D-01
     38 -0.197876D+01  0.000000D+00  0.107417D+01 -0.270809D+01 -0.599007D+00
               26            27            28            29            30 
     26 -0.660668D+01
     27 -0.298461D+01 -0.714962D+01
     28  0.000000D+00  0.000000D+00 -0.534765D+01
     29  0.000000D+00  0.000000D+00  0.000000D+00 -0.555849D+01
     30  0.000000D+00  0.000000D+00  0.000000D+00  0.000000D+00 -0.575382D+01
     31 -0.253759D+01 -0.145766D+01  0.000000D+00  0.000000D+00  0.149777D+01
     32 -0.309511D+01 -0.285444D+01  0.000000D+00  0.000000D+00  0.319934D+00
     33 -0.253759D+01 -0.145766D+01  0.000000D+00  0.000000D+00 -0.149777D+01
     34 -0.309511D+01 -0.285444D+01  0.000000D+00  0.000000D+00 -0.319934D+00
     35 -0.502713D-01 -0.169436D+00  0.000000D+00  0.000000D+00 -0.110573D+00
     36 -0.695373D+00 -0.117155D+01  0.000000D+00  0.000000D+00 -0.338196D+00
     37 -0.502713D-01 -0.169436D+00  0.000000D+00  0.000000D+00  0.110573D+00
     38 -0.695373D+00 -0.117155D+01  0.000000D+00  0.000000D+00  0.338196D+00
               31            32            33            34            35 
     31 -0.530799D+01
     32 -0.379402D+01 -0.517376D+01
     33 -0.109601D+00 -0.852914D+00 -0.530799D+01
     34 -0.852914D+00 -0.224715D+01 -0.379402D+01 -0.517376D+01
     35 -0.754160D-02 -0.286777D+00 -0.191165D-03 -0.674058D-01 -0.530799D+01
     36 -0.286777D+00 -0.114269D+01 -0.674058D-01 -0.512303D+00 -0.379402D+01
     37 -0.191165D-03 -0.674058D-01 -0.754160D-02 -0.286777D+00 -0.109601D+00
     38 -0.674058D-01 -0.512303D+00 -0.286777D+00 -0.114269D+01 -0.852914D+00
               36            37            38 
     36 -0.517376D+01
     37 -0.852914D+00 -0.530799D+01
     38 -0.224715D+01 -0.379402D+01 -0.517376D+01
 SVDSVc IR=1
 SVDSVc V= 2.22D+01 7.37D+00 3.91D+00 3.48D+00 3.15D+00 2.15D+00 1.09D+00 7.48D-01 1.90D-01 1.23D-01
 SVDSVc IR=2
 SVDSVc V= 4.31D+00
 SVDSVc IR=3
 SVDSVc V= 4.67D+00 2.29D+00 9.64D-01
 SVDSVc IR=4
 SVDSVc V= 6.33D+00 2.33D+00 1.77D+00 4.94D-01 5.23D-02
 SVDSVc IR=5
 SVDSVc V= 3.69D+00
 SVDSVc IR=6
 SVDSVc V= 1.47D+01 4.00D+00 3.46D+00 2.82D+00 2.15D+00 8.36D-01 6.41D-01 1.82D-01 1.30D-01 3.07D-02
 SVDSVc IR=7
 SVDSVc V= 1.07D+01 5.60D+00 2.27D+00 8.06D-01 1.75D-01
 SVDSVc IR=8
 SVDSVc V= 9.03D+00 5.04D+00 2.00D+00
 TstOVc:  Largest diagonal error= 5.28D-14 IB=1 I=   10.
 TstOVc:  Largest same sym error= 9.69D-15 IB=1 I=   10 J=    9.
[...]
  33 4   H  1S          0.00911  -0.00322   0.00000   0.00000   0.01335
  34        2S          0.00629  -0.00255   0.00000   0.00000   0.01274
  35 5   H  1S          0.00079   0.00249   0.00000   0.00000   0.00991
  36        2S          0.00243   0.00017   0.00000   0.00000   0.01027
  37 6   H  1S          0.00079   0.00249   0.00000   0.00000  -0.00991
  38        2S          0.00243   0.00017   0.00000   0.00000  -0.01027
                          31        32        33        34        35
  31 3   H  1S          0.21240
  32        2S          0.16169   0.13539
  33 4   H  1S         -0.03943  -0.06101   0.21240
  34        2S         -0.06101  -0.06598   0.16169   0.13539
  35 5   H  1S         -0.02649  -0.03103   0.03187   0.05310   0.21240
  36        2S         -0.03103  -0.03480   0.05310   0.06733   0.16169
  37 6   H  1S          0.03187   0.05310  -0.02649  -0.03103  -0.03943
  38        2S          0.05310   0.06733  -0.03103  -0.03480  -0.06101
                          36        37        38
  36        2S          0.13539
  37 6   H  1S         -0.06101   0.21240
  38        2S         -0.06598   0.16169   0.13539
    Full Mulliken population analysis:
                           1         2         3         4         5
   1 1   C  1S          2.05295
   2        2S         -0.01396   0.32194
   3        2PX         0.00000   0.00000   0.32114
   4        2PY         0.00000   0.00000   0.00000   0.40577
   5        2PZ         0.00000   0.00000   0.00000   0.00000   0.42046
   6        3S         -0.02937   0.21280   0.00000   0.00000   0.00000
   7        3PX         0.00000   0.00000   0.13065   0.00000   0.00000
   8        3PY         0.00000   0.00000   0.00000   0.08661   0.00000
   9        3PZ         0.00000   0.00000   0.00000   0.00000   0.08268
  10        4XX        -0.00088  -0.01201   0.00000   0.00000   0.00000
  11        4YY        -0.00173   0.00381   0.00000   0.00000   0.00000
  12        4ZZ        -0.00145  -0.00057   0.00000   0.00000   0.00000
  13        4XY         0.00000   0.00000   0.00000   0.00000   0.00000
  14        4XZ         0.00000   0.00000   0.00000   0.00000   0.00000
  15        4YZ         0.00000   0.00000   0.00000   0.00000   0.00000
  16 2   C  1S          0.00000  -0.00078   0.00000   0.00000  -0.00377
  17        2S         -0.00078   0.01414   0.00000   0.00000   0.04944
  18        2PX         0.00000   0.00000   0.03779   0.00000   0.00000
  19        2PY         0.00000   0.00000   0.00000   0.00295   0.00000
  20        2PZ        -0.00377   0.04944   0.00000   0.00000   0.10272
  21        3S         -0.00038   0.00906   0.00000   0.00000   0.03272
  22        3PX         0.00000   0.00000   0.05605   0.00000   0.00000
  23        3PY         0.00000   0.00000   0.00000   0.00171   0.00000
  24        3PZ        -0.00244   0.02647   0.00000   0.00000   0.01673
  25        4XX         0.00000  -0.00045   0.00000   0.00000  -0.00110
  26        4YY         0.00000  -0.00076   0.00000   0.00000  -0.00162
  27        4ZZ        -0.00030   0.00335   0.00000   0.00000   0.00150
  28        4XY         0.00000   0.00000   0.00000   0.00000   0.00000
  29        4XZ         0.00000   0.00000   0.00243   0.00000   0.00000
  30        4YZ         0.00000   0.00000   0.00000   0.00272   0.00000
  31 3   H  1S          0.00000  -0.00024   0.00000  -0.00016  -0.00059
  32        2S          0.00020  -0.00329   0.00000  -0.00246  -0.00676
  33 4   H  1S          0.00000  -0.00024   0.00000  -0.00016  -0.00059
  34        2S          0.00020  -0.00329   0.00000  -0.00246  -0.00676
  35 5   H  1S         -0.00187   0.03102   0.00000   0.07029   0.02436
  36        2S         -0.00142   0.01827   0.00000   0.04445   0.01476
  37 6   H  1S         -0.00187   0.03102   0.00000   0.07029   0.02436
  38        2S         -0.00142   0.01827   0.00000   0.04445   0.01476
                           6         7         8         9        10
   6        3S          0.22350
   7        3PX         0.00000   0.16375
   8        3PY         0.00000   0.00000   0.05697
   9        3PZ         0.00000   0.00000   0.00000   0.05200
  10        4XX        -0.00813   0.00000   0.00000   0.00000   0.00100
  11        4YY         0.00465   0.00000   0.00000   0.00000  -0.00005
  12        4ZZ        -0.00064   0.00000   0.00000   0.00000   0.00005
  13        4XY         0.00000   0.00000   0.00000   0.00000   0.00000
  14        4XZ         0.00000   0.00000   0.00000   0.00000   0.00000
  15        4YZ         0.00000   0.00000   0.00000   0.00000   0.00000
  16 2   C  1S         -0.00038   0.00000   0.00000  -0.00244   0.00000
  17        2S          0.00906   0.00000   0.00000   0.02647  -0.00045
  18        2PX         0.00000   0.05605   0.00000   0.00000   0.00000
  19        2PY         0.00000   0.00000   0.00171   0.00000   0.00000
  20        2PZ         0.03272   0.00000   0.00000   0.01673  -0.00110
  21        3S         -0.00376   0.00000   0.00000   0.02138  -0.00064
  22        3PX         0.00000   0.09534   0.00000   0.00000   0.00000
  23        3PY         0.00000   0.00000   0.00100   0.00000   0.00000
  24        3PZ         0.02138   0.00000   0.00000   0.00160  -0.00085
  25        4XX        -0.00064   0.00000   0.00000  -0.00085   0.00002
  26        4YY        -0.00173   0.00000   0.00000  -0.00169   0.00001
  27        4ZZ         0.00288   0.00000   0.00000   0.00026  -0.00007
  28        4XY         0.00000   0.00000   0.00000   0.00000   0.00000
  29        4XZ         0.00000   0.00151   0.00000   0.00000   0.00000
  30        4YZ         0.00000   0.00000   0.00091   0.00000   0.00000
  31 3   H  1S         -0.00232   0.00000  -0.00078  -0.00279   0.00000
  32        2S         -0.00634   0.00000  -0.00363  -0.00884   0.00007
  33 4   H  1S         -0.00232   0.00000  -0.00078  -0.00279   0.00000
  34        2S         -0.00634   0.00000  -0.00363  -0.00884   0.00007
  35 5   H  1S          0.04037   0.00000   0.03739   0.01408  -0.00068
  36        2S          0.02886   0.00000   0.03681   0.01212  -0.00073
  37 6   H  1S          0.04037   0.00000   0.03739   0.01408  -0.00068
  38        2S          0.02886   0.00000   0.03681   0.01212  -0.00073
                          11        12        13        14        15
  11        4YY         0.00136
  12        4ZZ        -0.00012   0.00056
  13        4XY         0.00000   0.00000   0.00000
  14        4XZ         0.00000   0.00000   0.00000   0.00053
  15        4YZ         0.00000   0.00000   0.00000   0.00000   0.00181
  16 2   C  1S          0.00000  -0.00030   0.00000   0.00000   0.00000
  17        2S         -0.00076   0.00335   0.00000   0.00000   0.00000
  18        2PX         0.00000   0.00000   0.00000   0.00243   0.00000
  19        2PY         0.00000   0.00000   0.00000   0.00000   0.00272
  20        2PZ        -0.00162   0.00150   0.00000   0.00000   0.00000
  21        3S         -0.00173   0.00288   0.00000   0.00000   0.00000
  22        3PX         0.00000   0.00000   0.00000   0.00151   0.00000
  23        3PY         0.00000   0.00000   0.00000   0.00000   0.00091
  24        3PZ        -0.00169   0.00026   0.00000   0.00000   0.00000
  25        4XX         0.00001  -0.00007   0.00000   0.00000   0.00000
  26        4YY         0.00003   0.00001   0.00000   0.00000   0.00000
  27        4ZZ         0.00001   0.00001   0.00000   0.00000   0.00000
  28        4XY         0.00000   0.00000   0.00000   0.00000   0.00000
  29        4XZ         0.00000   0.00000   0.00000   0.00017   0.00000
  30        4YZ         0.00000   0.00000   0.00000   0.00000  -0.00053
  31 3   H  1S          0.00000   0.00004   0.00000   0.00000   0.00011
  32        2S          0.00021   0.00002   0.00000   0.00000   0.00045
  33 4   H  1S          0.00000   0.00004   0.00000   0.00000   0.00011
  34        2S          0.00021   0.00002   0.00000   0.00000   0.00045
  35 5   H  1S          0.00332  -0.00064   0.00000   0.00000   0.00334
  36        2S          0.00257  -0.00094   0.00000   0.00000   0.00078
  37 6   H  1S          0.00332  -0.00064   0.00000   0.00000   0.00334
  38        2S          0.00257  -0.00094   0.00000   0.00000   0.00078
                          16        17        18        19        20
  16 2   C  1S          2.05295
  17        2S         -0.01396   0.32194
  18        2PX         0.00000   0.00000   0.32114
  19        2PY         0.00000   0.00000   0.00000   0.40577
  20        2PZ         0.00000   0.00000   0.00000   0.00000   0.42046
  21        3S         -0.02937   0.21280   0.00000   0.00000   0.00000
  22        3PX         0.00000   0.00000   0.13065   0.00000   0.00000
  23        3PY         0.00000   0.00000   0.00000   0.08661   0.00000
  24        3PZ         0.00000   0.00000   0.00000   0.00000   0.08268
  25        4XX        -0.00088  -0.01201   0.00000   0.00000   0.00000
  26        4YY        -0.00173   0.00381   0.00000   0.00000   0.00000
  27        4ZZ        -0.00145  -0.00057   0.00000   0.00000   0.00000
  28        4XY         0.00000   0.00000   0.00000   0.00000   0.00000
  29        4XZ         0.00000   0.00000   0.00000   0.00000   0.00000
  30        4YZ         0.00000   0.00000   0.00000   0.00000   0.00000
  31 3   H  1S         -0.00187   0.03102   0.00000   0.07029   0.02436
  32        2S         -0.00142   0.01827   0.00000   0.04445   0.01476
  33 4   H  1S         -0.00187   0.03102   0.00000   0.07029   0.02436
  34        2S         -0.00142   0.01827   0.00000   0.04445   0.01476
  35 5   H  1S          0.00000  -0.00024   0.00000  -0.00016  -0.00059
  36        2S          0.00020  -0.00329   0.00000  -0.00246  -0.00676
  37 6   H  1S          0.00000  -0.00024   0.00000  -0.00016  -0.00059
  38        2S          0.00020  -0.00329   0.00000  -0.00246  -0.00676
                          21        22        23        24        25
  21        3S          0.22350
  22        3PX         0.00000   0.16375
  23        3PY         0.00000   0.00000   0.05697
  24        3PZ         0.00000   0.00000   0.00000   0.05200
  25        4XX        -0.00813   0.00000   0.00000   0.00000   0.00100
  26        4YY         0.00465   0.00000   0.00000   0.00000  -0.00005
  27        4ZZ        -0.00064   0.00000   0.00000   0.00000   0.00005
  28        4XY         0.00000   0.00000   0.00000   0.00000   0.00000
  29        4XZ         0.00000   0.00000   0.00000   0.00000   0.00000
  30        4YZ         0.00000   0.00000   0.00000   0.00000   0.00000
  31 3   H  1S          0.04037   0.00000   0.03739   0.01408  -0.00068
  32        2S          0.02886   0.00000   0.03681   0.01212  -0.00073
  33 4   H  1S          0.04037   0.00000   0.03739   0.01408  -0.00068
  34        2S          0.02886   0.00000   0.03681   0.01212  -0.00073
  35 5   H  1S         -0.00232   0.00000  -0.00078  -0.00279   0.00000
  36        2S         -0.00634   0.00000  -0.00363  -0.00884   0.00007
  37 6   H  1S         -0.00232   0.00000  -0.00078  -0.00279   0.00000
  38        2S         -0.00634   0.00000  -0.00363  -0.00884   0.00007
                          26        27        28        29        30
  26        4YY         0.00136
  27        4ZZ        -0.00012   0.00056
  28        4XY         0.00000   0.00000   0.00000
  29        4XZ         0.00000   0.00000   0.00000   0.00053
  30        4YZ         0.00000   0.00000   0.00000   0.00000   0.00181
  31 3   H  1S          0.00332  -0.00064   0.00000   0.00000   0.00334
  32        2S          0.00257  -0.00094   0.00000   0.00000   0.00078
  33 4   H  1S          0.00332  -0.00064   0.00000   0.00000   0.00334
  34        2S          0.00257  -0.00094   0.00000   0.00000   0.00078
  35 5   H  1S          0.00000   0.00004   0.00000   0.00000   0.00011
  36        2S          0.00021   0.00002   0.00000   0.00000   0.00045
  37 6   H  1S          0.00000   0.00004   0.00000   0.00000   0.00011
  38        2S          0.00021   0.00002   0.00000   0.00000   0.00045
                          31        32        33        34        35
  31 3   H  1S          0.21240
  32        2S          0.10644   0.13539
  33 4   H  1S         -0.00042  -0.00733   0.21240
  34        2S         -0.00733  -0.02320   0.10644   0.13539
  35 5   H  1S         -0.00002  -0.00126   0.00000   0.00040   0.21240
  36        2S         -0.00126  -0.00627   0.00040   0.00426   0.10644
  37 6   H  1S          0.00000   0.00040  -0.00002  -0.00126  -0.00042
  38        2S          0.00040   0.00426  -0.00126  -0.00627  -0.00733
                          36        37        38
  36        2S          0.13539
  37 6   H  1S         -0.00733   0.21240
  38        2S         -0.02320   0.10644   0.13539
     Gross orbital populations:
                           1
   1 1   C  1S          1.99172
   2        2S          0.70402
   3        2PX         0.54806
   4        2PY         0.72399
   5        2PZ         0.76330
   6        3S          0.58349
   7        3PX         0.44730
   8        3PY         0.28677
   9        3PZ         0.22528
  10        4XX        -0.02574
  11        4YY         0.01438
  12        4ZZ         0.00241
  13        4XY         0.00000
  14        4XZ         0.00464
  15        4YZ         0.01425
  16 2   C  1S          1.99172
  17        2S          0.70402
  18        2PX         0.54806
  19        2PY         0.72399
  20        2PZ         0.76330
  21        3S          0.58349
  22        3PX         0.44730
  23        3PY         0.28677
  24        3PZ         0.22528
  25        4XX        -0.02574
  26        4YY         0.01438
  27        4ZZ         0.00241
  28        4XY         0.00000
  29        4XZ         0.00464
  30        4YZ         0.01425
  31 3   H  1S          0.52447
  32        2S          0.33360
  33 4   H  1S          0.52447
  34        2S          0.33360
  35 5   H  1S          0.52447
  36        2S          0.33360
  37 6   H  1S          0.52447
  38        2S          0.33360
          Condensed to atoms (all electrons):
              1          2          3          4          5          6
     1  C    4.928384   0.676625  -0.037102  -0.037102   0.376527   0.376527
     2  C    0.676625   4.928384   0.376527   0.376527  -0.037102  -0.037102
     3  H   -0.037102   0.376527   0.560682  -0.038289  -0.008808   0.005060
     4  H   -0.037102   0.376527  -0.038289   0.560682   0.005060  -0.008808
     5  H    0.376527  -0.037102  -0.008808   0.005060   0.560682  -0.038289
     6  H    0.376527  -0.037102   0.005060  -0.008808  -0.038289   0.560682
 Mulliken atomic charges:
              1
     1  C   -0.283861
     2  C   -0.283861
     3  H    0.141930
     4  H    0.141930
     5  H    0.141930
     6  H    0.141930
 Sum of Mulliken atomic charges =   0.00000
 Mulliken charges with hydrogens summed into heavy atoms:
              1
     1  C    0.000000
     2  C    0.000000
 Sum of Mulliken charges with hydrogens summed into heavy atoms =   0.00000
 Electronic spatial extent (au):  <R**2>=             82.7029
 Charge=              0.0000 electrons
 Dipole moment (field-independent basis, Debye):
    X=              0.0000    Y=              0.0000    Z=              0.0000  Tot=              0.0000
 Quadrupole moment (field-independent basis, Debye-Ang):
   XX=            -15.1209   YY=            -11.9327   ZZ=            -12.2787
   XY=              0.0000   XZ=              0.0000   YZ=              0.0000
 Traceless Quadrupole moment (field-independent basis, Debye-Ang):
   XX=             -2.0102   YY=              1.1781   ZZ=              0.8321
   XY=              0.0000   XZ=              0.0000   YZ=              0.0000
 Octapole moment (field-independent basis, Debye-Ang**2):
  XXX=              0.0000  YYY=              0.0000  ZZZ=              0.0000  XYY=              0.0000
  XXY=              0.0000  XXZ=              0.0000  XZZ=              0.0000  YZZ=              0.0000
  YYZ=              0.0000  XYZ=              0.0000
 Hexadecapole moment (field-independent basis, Debye-Ang**3):
 XXXX=            -15.7302 YYYY=            -26.7065 ZZZZ=            -67.6977 XXXY=              0.0000
 XXXZ=              0.0000 YYYX=              0.0000 YYYZ=              0.0000 ZZZX=              0.0000
 ZZZY=              0.0000 XXYY=             -7.7286 XXZZ=            -14.6589 YYZZ=            -13.2855
 XXYZ=              0.0000 YYXZ=              0.0000 ZZXY=              0.0000
 N-N= 3.309407748857D+01 E-N=-2.475181772701D+02  KE= 7.768418931236D+01
 Symmetry AG   KE= 3.734212690411D+01
 Symmetry B1G  KE= 2.909213725830D-34
 Symmetry B2G  KE= 7.237004515493D-33
 Symmetry B3G  KE= 2.076599035617D+00
 Symmetry AU   KE= 3.261626084133D-34
 Symmetry B1U  KE= 3.433114825061D+01
 Symmetry B2U  KE= 1.853419754373D+00
 Symmetry B3U  KE= 2.080895367646D+00
 Orbital energies and kinetic energies (alpha):
                                 1                 2
   1         (AG)--O         -10.187064         15.874015
   2         (B1U)--O        -10.186229         15.887140
   3         (AG)--O          -0.752528          1.525829
   4         (B1U)--O         -0.570423          1.278434
   5         (B2U)--O         -0.467131          0.926710
   6         (AG)--O          -0.406669          1.271219
   7         (B3G)--O         -0.355452          1.038300
   8         (B3U)--O         -0.265141          1.040448
   9         (B2G)--V          0.017596          1.237339
  10         (AG)--V           0.113853          0.914522
  11         (B2U)--V          0.138338          0.903617
  12         (B1U)--V          0.154778          1.148236
  13         (B3G)--V          0.241073          0.964947
  14         (B1U)--V          0.323396          1.096740
  15         (AG)--V           0.480595          1.451102
  16         (B3U)--V          0.549245          1.996388
  17         (B2U)--V          0.584793          1.575155
  18         (B2G)--V          0.636322          2.258775
  19         (AG)--V           0.649067          1.539373
  20         (B1U)--V          0.697253          2.632269
  21         (B2U)--V          0.842320          2.470850
  22         (B3G)--V          0.864664          2.932726
  23         (B1U)--V          0.914483          2.686563
  24         (AG)--V           0.923790          2.506398
  25         (B1U)--V          1.104228          2.300667
  26         (B3G)--V          1.252490          2.229740
  27         (B3U)--V          1.462548          2.648766
  28         (B1G)--V          1.547764          2.653426
  29         (AU)--V           1.829120          2.971005
  30         (AG)--V           1.890418          3.084281
  31         (B2U)--V          1.958630          3.394573
  32         (AG)--V           2.091060          3.424172
  33         (B1U)--V          2.293338          3.583302
  34         (B2G)--V          2.379823          3.602341
  35         (B3G)--V          2.631147          4.043663
  36         (B1U)--V          2.698216          4.804326
  37         (AG)--V           4.087828         10.070841
  38         (B1U)--V          4.242838          9.984904
 Total kinetic energy from orbitals= 7.768418931236D+01

 Test job not archived.
 1|1|UNPC-Q5|SP|RTD-B3LYP-FC|6-31G(d)|C2H4|USER|26-Oct-2016|0||# td(NSt
 ates=3,50-50) b3lyp/6-31G(d) sp SCF=Tight pop=full gfinput Iop(3/33=1)
 ||c2h4||0,1|C|C,1,1.34|H,2,1.1,1,120.|H,2,1.1,1,120.,3,180.,0|H,1,1.1,
 2,120.,3,0.,0|H,1,1.1,2,120.,5,180.,0||Version=IA32W-G09RevA.02|State=
 1-AG|HF=-78.5862432|RMSD=3.223e-009|PG=D02H [C2"(C1.C1),SG(H4)]||@


 WE LEARN WISDOM FROM FAILURE MUCH MORE THAN FROM SUCCESS.
 WE DISCOVER WHAT WILL DO BY FINDING OUT WHAT WILL NOT DO...
 AND HE WHO NEVER MADE A MISTAKE NEVER MADE A DISCOVERY
 Job cpu time:  0 days  0 hours  0 minutes 18.0 seconds.
 File lengths (MBytes):  RWF=      9 Int=      0 D2E=      0 Chk=      3 Scr=      1
 Normal termination of Gaussian 09 at Wed Oct 26 01:19:41 2016.
