 Entering Gaussian System, Link 0=g09
 Input=str9-cam-root1.gjf
 Output=str9-cam-root1.log
 Initial command:
 /usr/g09/l1.exe /home/student/Documents/Gau-24317.inp -scrdir=/home/student/Documents/
 Entering Link 1 = /usr/g09/l1.exe PID=     24318.
  
 Copyright (c) 1988,1990,1992,1993,1995,1998,2003,2009, Gaussian, Inc.
                  All Rights Reserved.
  
 This is part of the Gaussian(R) 09 program.  It is based on
 the Gaussian(R) 03 system (copyright 2003, Gaussian, Inc.),
 the Gaussian(R) 98 system (copyright 1998, Gaussian, Inc.),
 the Gaussian(R) 94 system (copyright 1995, Gaussian, Inc.),
 the Gaussian 92(TM) system (copyright 1992, Gaussian, Inc.),
 the Gaussian 90(TM) system (copyright 1990, Gaussian, Inc.),
 the Gaussian 88(TM) system (copyright 1988, Gaussian, Inc.),
 the Gaussian 86(TM) system (copyright 1986, Carnegie Mellon
 University), and the Gaussian 82(TM) system (copyright 1983,
 Carnegie Mellon University). Gaussian is a federally registered
 trademark of Gaussian, Inc.
  
 This software contains proprietary and confidential information,
 including trade secrets, belonging to Gaussian, Inc.
  
 This software is provided under written license and may be
 used, copied, transmitted, or stored only in accord with that
 written license.
  
 The following legend is applicable only to US Government
 contracts under FAR:
  
                    RESTRICTED RIGHTS LEGEND
  
 Use, reproduction and disclosure by the US Government is
 subject to restrictions as set forth in subparagraphs (a)
 and (c) of the Commercial Computer Software - Restricted
 Rights clause in FAR 52.227-19.
  
 Gaussian, Inc.
 340 Quinnipiac St., Bldg. 40, Wallingford CT 06492
  
  
 ---------------------------------------------------------------
 Warning -- This program may not be used in any manner that
 competes with the business of Gaussian, Inc. or will provide
 assistance to any competitor of Gaussian, Inc.  The licensee
 of this program is prohibited from giving any competitor of
 Gaussian, Inc. access to this program.  By using this program,
 the user acknowledges that Gaussian, Inc. is engaged in the
 business of creating and licensing software in the field of
 computational chemistry and represents and warrants to the
 licensee that it is not a competitor of Gaussian, Inc. and that
 it will not use this program in any manner prohibited above.
 ---------------------------------------------------------------
  

 Cite this work as:
 Gaussian 09, Revision A.01,
 M. J. Frisch, G. W. Trucks, H. B. Schlegel, G. E. Scuseria, 
 M. A. Robb, J. R. Cheeseman, G. Scalmani, V. Barone, B. Mennucci, 
 G. A. Petersson, H. Nakatsuji, M. Caricato, X. Li, H. P. Hratchian, 
 A. F. Izmaylov, J. Bloino, G. Zheng, J. L. Sonnenberg, M. Hada, 
 M. Ehara, K. Toyota, R. Fukuda, J. Hasegawa, M. Ishida, T. Nakajima, 
 Y. Honda, O. Kitao, H. Nakai, T. Vreven, J. A. Montgomery, Jr., 
 J. E. Peralta, F. Ogliaro, M. Bearpark, J. J. Heyd, E. Brothers, 
 K. N. Kudin, V. N. Staroverov, R. Kobayashi, J. Normand, 
 K. Raghavachari, A. Rendell, J. C. Burant, S. S. Iyengar, J. Tomasi, 
 M. Cossi, N. Rega, J. M. Millam, M. Klene, J. E. Knox, J. B. Cross, 
 V. Bakken, C. Adamo, J. Jaramillo, R. Gomperts, R. E. Stratmann, 
 O. Yazyev, A. J. Austin, R. Cammi, C. Pomelli, J. W. Ochterski, 
 R. L. Martin, K. Morokuma, V. G. Zakrzewski, G. A. Voth, 
 P. Salvador, J. J. Dannenberg, S. Dapprich, A. D. Daniels, 
 O. Farkas, J. B. Foresman, J. V. Ortiz, J. Cioslowski, 
 and D. J. Fox, Gaussian, Inc., Wallingford CT, 2009.
 
 ******************************************
 Gaussian 09:  EM64L-G09RevA.01  8-May-2009
                12-Jan-2017 
 ******************************************
 %NProc=4
 Will use up to    4 processors via shared memory.
 %Mem=12000MB
 %rwf=str9-cam-root1.rwf
 %NoSave
 %chk=str9-cam-root1.chk
 ----------------------------------------------------------------------
 # CAM-b3lyp td(Root=1,NStates=4,Singlets)/6-31+G(d,p) FOpt SCRF=(PCM,S
 olvent=Dichloromethane)
 ----------------------------------------------------------------------
 1/14=-1,18=20,19=15,26=3,38=1/1,3;
 2/9=110,12=2,14=103,17=6,18=5,40=1/2;
 3/5=1,6=6,7=111,11=2,16=1,25=1,30=1,70=2201,71=1,72=9,74=-40/1,2,8,3;
 4//1;
 5/5=2,38=5,53=9/2;
 8/6=1,10=2,107=1,108=4/1;
 9/8=1,15=2,41=4,42=1,48=1/14;
 10/5=4/2;
 6/7=2,8=2,9=2,10=2/1;
 7/12=6,13=5,14=1/1,2,3,16;
 1/14=-1,18=20,19=15/3(2);
 2/9=110/2;
 99//99;
 2/9=110/2;
 3/5=1,6=6,7=111,11=2,16=1,25=1,30=1,70=2205,71=1,72=9,74=-40/1,2,8,3;
 4/5=5,16=3/1;
 5/5=2,38=5,53=9/2;
 8/6=1,10=2,107=1,108=4/1;
 9/8=1,15=2,41=4,42=1,48=1,49=4/14;
 10/5=4/2;
 7/12=6,13=5,14=1/1,2,3,16;
 1/14=-1,18=20,19=15/3(-8);
 2/9=110/2;
 6/7=2,8=2,9=2,10=2/1;
 99//99;
 ---------
 Str1 - Ge
 ---------
 Symbolic Z-matrix:
 Charge =  0 Multiplicity = 1
 Ge1                  -2.69667   0.00175  -0.00044 
 C2                   -3.39968   1.82768  -0.2193 
 F3                   -3.16721   2.28401  -1.46926 
 F4                   -4.7334    1.85141  -0.00819 
 F5                   -2.82548   2.68477   0.64892 
 C6                   -3.41162  -1.10282  -1.46636 
 F7                   -3.1596   -2.41133  -1.24461 
 F8                   -4.74917  -0.94847  -1.57331 
 F9                   -2.85863  -0.76734  -2.64935 
 C10                  -3.38997  -0.72396   1.69406 
 F11                  -4.72719  -0.90137   1.62861 
 F12                  -2.82598  -1.91557   1.98018 
 F13                  -3.13035   0.11653   2.71867 
 C14                  -0.83801   0.00222  -0.00743 
 C15                   0.37996   0.00185  -0.00873 
 C16                   4.63259  -0.00004  -0.00483 
 C17                   2.5185   -1.14982   0.37286 
 C18                   3.90699  -1.14407   0.37332 
 C19                   3.9089    1.14445  -0.38528 
 C20                   2.52041   1.15134  -0.38844 
 C21                   1.8029    0.00112  -0.00853 
 H22                   1.97465  -2.03815   0.67634 
 H23                   4.44074  -2.03178   0.69712 
 H24                   4.44422   2.03176  -0.70756 
 H25                   1.97812   2.04025  -0.693 
 C26                   8.93323  -0.00143   0.00412 
 C27                   6.83751  -1.14118  -0.39351 
 C28                   8.23097  -1.14115  -0.39118 
 C29                   8.23003   1.13878   0.39631 
 C30                   6.83658   1.13978   0.39254 
 C31                   6.11602  -0.00046  -0.00204 
 H32                   6.30181  -2.02404  -0.72899 
 H33                   8.76884  -2.03034  -0.70668 
 H34                   8.76713   2.02759   0.71422 
 H35                   6.30004   2.02297   0.72579 
 H36                   10.01907  -0.00182   0.00655 
 

 GradGradGradGradGradGradGradGradGradGradGradGradGradGradGradGradGradGrad
 Berny optimization.
 Initialization pass.
                           ----------------------------
                           !    Initial Parameters    !
                           ! (Angstroms and Degrees)  !
 --------------------------                            --------------------------
 ! Name  Definition              Value          Derivative Info.                !
 --------------------------------------------------------------------------------
 ! R1    R(1,2)                  1.9688         estimate D2E/DX2                !
 ! R2    R(1,6)                  1.9698         estimate D2E/DX2                !
 ! R3    R(1,10)                 1.9694         estimate D2E/DX2                !
 ! R4    R(1,14)                 1.8587         estimate D2E/DX2                !
 ! R5    R(2,3)                  1.3508         estimate D2E/DX2                !
 ! R6    R(2,4)                  1.3505         estimate D2E/DX2                !
 ! R7    R(2,5)                  1.3484         estimate D2E/DX2                !
 ! R8    R(6,7)                  1.3509         estimate D2E/DX2                !
 ! R9    R(6,8)                  1.3507         estimate D2E/DX2                !
 ! R10   R(6,9)                  1.3483         estimate D2E/DX2                !
 ! R11   R(10,11)                1.3505         estimate D2E/DX2                !
 ! R12   R(10,12)                1.349          estimate D2E/DX2                !
 ! R13   R(10,13)                1.3504         estimate D2E/DX2                !
 ! R14   R(14,15)                1.218          estimate D2E/DX2                !
 ! R15   R(15,21)                1.4229         estimate D2E/DX2                !
 ! R16   R(16,18)                1.4065         estimate D2E/DX2                !
 ! R17   R(16,19)                1.4065         estimate D2E/DX2                !
 ! R18   R(16,31)                1.4834         estimate D2E/DX2                !
 ! R19   R(17,18)                1.3885         estimate D2E/DX2                !
 ! R20   R(17,21)                1.4079         estimate D2E/DX2                !
 ! R21   R(17,22)                1.0849         estimate D2E/DX2                !
 ! R22   R(18,23)                1.0852         estimate D2E/DX2                !
 ! R23   R(19,20)                1.3885         estimate D2E/DX2                !
 ! R24   R(19,24)                1.0852         estimate D2E/DX2                !
 ! R25   R(20,21)                1.4079         estimate D2E/DX2                !
 ! R26   R(20,25)                1.0849         estimate D2E/DX2                !
 ! R27   R(26,28)                1.3958         estimate D2E/DX2                !
 ! R28   R(26,29)                1.3958         estimate D2E/DX2                !
 ! R29   R(26,36)                1.0858         estimate D2E/DX2                !
 ! R30   R(27,28)                1.3935         estimate D2E/DX2                !
 ! R31   R(27,31)                1.4054         estimate D2E/DX2                !
 ! R32   R(27,32)                1.0858         estimate D2E/DX2                !
 ! R33   R(28,33)                1.0861         estimate D2E/DX2                !
 ! R34   R(29,30)                1.3935         estimate D2E/DX2                !
 ! R35   R(29,34)                1.0861         estimate D2E/DX2                !
 ! R36   R(30,31)                1.4054         estimate D2E/DX2                !
 ! R37   R(30,35)                1.0858         estimate D2E/DX2                !
 ! A1    A(2,1,6)              107.9226         estimate D2E/DX2                !
 ! A2    A(2,1,10)             108.1611         estimate D2E/DX2                !
 ! A3    A(2,1,14)             110.8806         estimate D2E/DX2                !
 ! A4    A(6,1,10)             107.8122         estimate D2E/DX2                !
 ! A5    A(6,1,14)             111.1185         estimate D2E/DX2                !
 ! A6    A(10,1,14)            110.8155         estimate D2E/DX2                !
 ! A7    A(1,2,3)              110.7762         estimate D2E/DX2                !
 ! A8    A(1,2,4)              110.5823         estimate D2E/DX2                !
 ! A9    A(1,2,5)              111.462          estimate D2E/DX2                !
 ! A10   A(3,2,4)              107.9786         estimate D2E/DX2                !
 ! A11   A(3,2,5)              107.9273         estimate D2E/DX2                !
 ! A12   A(4,2,5)              107.9823         estimate D2E/DX2                !
 ! A13   A(1,6,7)              110.6887         estimate D2E/DX2                !
 ! A14   A(1,6,8)              110.7494         estimate D2E/DX2                !
 ! A15   A(1,6,9)              111.3811         estimate D2E/DX2                !
 ! A16   A(7,6,8)              107.9654         estimate D2E/DX2                !
 ! A17   A(7,6,9)              107.9706         estimate D2E/DX2                !
 ! A18   A(8,6,9)              107.9538         estimate D2E/DX2                !
 ! A19   A(1,10,11)            110.8103         estimate D2E/DX2                !
 ! A20   A(1,10,12)            111.1493         estimate D2E/DX2                !
 ! A21   A(1,10,13)            110.8419         estimate D2E/DX2                !
 ! A22   A(11,10,12)           107.9504         estimate D2E/DX2                !
 ! A23   A(11,10,13)           107.9923         estimate D2E/DX2                !
 ! A24   A(12,10,13)           107.9667         estimate D2E/DX2                !
 ! A25   A(18,16,19)           117.9784         estimate D2E/DX2                !
 ! A26   A(18,16,31)           121.0071         estimate D2E/DX2                !
 ! A27   A(19,16,31)           121.0145         estimate D2E/DX2                !
 ! A28   A(18,17,21)           120.3296         estimate D2E/DX2                !
 ! A29   A(18,17,22)           120.3036         estimate D2E/DX2                !
 ! A30   A(21,17,22)           119.3638         estimate D2E/DX2                !
 ! A31   A(16,18,17)           121.2755         estimate D2E/DX2                !
 ! A32   A(16,18,23)           119.4605         estimate D2E/DX2                !
 ! A33   A(17,18,23)           119.2439         estimate D2E/DX2                !
 ! A34   A(16,19,20)           121.2761         estimate D2E/DX2                !
 ! A35   A(16,19,24)           119.4604         estimate D2E/DX2                !
 ! A36   A(20,19,24)           119.2442         estimate D2E/DX2                !
 ! A37   A(19,20,21)           120.3286         estimate D2E/DX2                !
 ! A38   A(19,20,25)           120.3014         estimate D2E/DX2                !
 ! A39   A(21,20,25)           119.3673         estimate D2E/DX2                !
 ! A40   A(15,21,17)           120.5792         estimate D2E/DX2                !
 ! A41   A(15,21,20)           120.609          estimate D2E/DX2                !
 ! A42   A(17,21,20)           118.8117         estimate D2E/DX2                !
 ! A43   A(28,26,29)           119.5437         estimate D2E/DX2                !
 ! A44   A(28,26,36)           120.2283         estimate D2E/DX2                !
 ! A45   A(29,26,36)           120.2281         estimate D2E/DX2                !
 ! A46   A(28,27,31)           120.8571         estimate D2E/DX2                !
 ! A47   A(28,27,32)           119.5974         estimate D2E/DX2                !
 ! A48   A(31,27,32)           119.5223         estimate D2E/DX2                !
 ! A49   A(26,28,27)           120.2385         estimate D2E/DX2                !
 ! A50   A(26,28,33)           120.1062         estimate D2E/DX2                !
 ! A51   A(27,28,33)           119.6533         estimate D2E/DX2                !
 ! A52   A(26,29,30)           120.2385         estimate D2E/DX2                !
 ! A53   A(26,29,34)           120.1064         estimate D2E/DX2                !
 ! A54   A(30,29,34)           119.653          estimate D2E/DX2                !
 ! A55   A(29,30,31)           120.8571         estimate D2E/DX2                !
 ! A56   A(29,30,35)           119.5968         estimate D2E/DX2                !
 ! A57   A(31,30,35)           119.5226         estimate D2E/DX2                !
 ! A58   A(16,31,27)           120.8696         estimate D2E/DX2                !
 ! A59   A(16,31,30)           120.8653         estimate D2E/DX2                !
 ! A60   A(27,31,30)           118.265          estimate D2E/DX2                !
 ! A61   L(1,14,15,10,-1)      179.8457         estimate D2E/DX2                !
 ! A62   L(14,15,21,17,-1)     179.967          estimate D2E/DX2                !
 ! A63   L(1,14,15,10,-2)      180.0532         estimate D2E/DX2                !
 ! A64   L(14,15,21,17,-2)     180.126          estimate D2E/DX2                !
 ! D1    D(6,1,2,3)            -52.1469         estimate D2E/DX2                !
 ! D2    D(6,1,2,4)             67.53           estimate D2E/DX2                !
 ! D3    D(6,1,2,5)           -172.339          estimate D2E/DX2                !
 ! D4    D(10,1,2,3)          -168.535          estimate D2E/DX2                !
 ! D5    D(10,1,2,4)           -48.8582         estimate D2E/DX2                !
 ! D6    D(10,1,2,5)            71.2728         estimate D2E/DX2                !
 ! D7    D(14,1,2,3)            69.7688         estimate D2E/DX2                !
 ! D8    D(14,1,2,4)          -170.5543         estimate D2E/DX2                !
 ! D9    D(14,1,2,5)           -50.4233         estimate D2E/DX2                !
 ! D10   D(2,1,6,7)           -169.2489         estimate D2E/DX2                !
 ! D11   D(2,1,6,8)            -49.5367         estimate D2E/DX2                !
 ! D12   D(2,1,6,9)             70.617          estimate D2E/DX2                !
 ! D13   D(10,1,6,7)           -52.6336         estimate D2E/DX2                !
 ! D14   D(10,1,6,8)            67.0786         estimate D2E/DX2                !
 ! D15   D(10,1,6,9)          -172.7677         estimate D2E/DX2                !
 ! D16   D(14,1,6,7)            68.9824         estimate D2E/DX2                !
 ! D17   D(14,1,6,8)          -171.3053         estimate D2E/DX2                !
 ! D18   D(14,1,6,9)           -51.1517         estimate D2E/DX2                !
 ! D19   D(2,1,10,11)           66.9436         estimate D2E/DX2                !
 ! D20   D(2,1,10,12)         -173.0202         estimate D2E/DX2                !
 ! D21   D(2,1,10,13)          -52.9424         estimate D2E/DX2                !
 ! D22   D(6,1,10,11)          -49.5162         estimate D2E/DX2                !
 ! D23   D(6,1,10,12)           70.52           estimate D2E/DX2                !
 ! D24   D(6,1,10,13)         -169.4022         estimate D2E/DX2                !
 ! D25   D(14,1,10,11)        -171.3201         estimate D2E/DX2                !
 ! D26   D(14,1,10,12)         -51.2839         estimate D2E/DX2                !
 ! D27   D(14,1,10,13)          68.7939         estimate D2E/DX2                !
 ! D28   D(2,1,21,17)          168.4816         estimate D2E/DX2                !
 ! D29   D(2,1,21,20)          -11.3442         estimate D2E/DX2                !
 ! D30   D(6,1,21,17)          -71.4161         estimate D2E/DX2                !
 ! D31   D(6,1,21,20)          108.7581         estimate D2E/DX2                !
 ! D32   D(10,1,21,17)          48.4049         estimate D2E/DX2                !
 ! D33   D(10,1,21,20)        -131.4209         estimate D2E/DX2                !
 ! D34   D(19,16,18,17)          0.0143         estimate D2E/DX2                !
 ! D35   D(19,16,18,23)       -178.3446         estimate D2E/DX2                !
 ! D36   D(31,16,18,17)        179.9947         estimate D2E/DX2                !
 ! D37   D(31,16,18,23)          1.6358         estimate D2E/DX2                !
 ! D38   D(18,16,19,20)          0.0542         estimate D2E/DX2                !
 ! D39   D(18,16,19,24)       -178.3339         estimate D2E/DX2                !
 ! D40   D(31,16,19,20)       -179.9262         estimate D2E/DX2                !
 ! D41   D(31,16,19,24)          1.6857         estimate D2E/DX2                !
 ! D42   D(18,16,31,27)         37.3546         estimate D2E/DX2                !
 ! D43   D(18,16,31,30)       -142.6267         estimate D2E/DX2                !
 ! D44   D(19,16,31,27)       -142.6656         estimate D2E/DX2                !
 ! D45   D(19,16,31,30)         37.3531         estimate D2E/DX2                !
 ! D46   D(21,17,18,16)         -0.0678         estimate D2E/DX2                !
 ! D47   D(21,17,18,23)        178.2946         estimate D2E/DX2                !
 ! D48   D(22,17,18,16)       -179.43           estimate D2E/DX2                !
 ! D49   D(22,17,18,23)         -1.0677         estimate D2E/DX2                !
 ! D50   D(18,17,21,15)       -179.8908         estimate D2E/DX2                !
 ! D51   D(18,17,21,20)          0.0529         estimate D2E/DX2                !
 ! D52   D(22,17,21,15)         -0.5225         estimate D2E/DX2                !
 ! D53   D(22,17,21,20)        179.4211         estimate D2E/DX2                !
 ! D54   D(16,19,20,21)         -0.0688         estimate D2E/DX2                !
 ! D55   D(16,19,20,25)       -179.4724         estimate D2E/DX2                !
 ! D56   D(24,19,20,21)        178.3227         estimate D2E/DX2                !
 ! D57   D(24,19,20,25)         -1.0809         estimate D2E/DX2                !
 ! D58   D(19,20,21,15)        179.9582         estimate D2E/DX2                !
 ! D59   D(19,20,21,17)          0.0145         estimate D2E/DX2                !
 ! D60   D(25,20,21,15)         -0.6327         estimate D2E/DX2                !
 ! D61   D(25,20,21,17)        179.4236         estimate D2E/DX2                !
 ! D62   D(29,26,28,27)         -0.042          estimate D2E/DX2                !
 ! D63   D(29,26,28,33)        179.4451         estimate D2E/DX2                !
 ! D64   D(36,26,28,27)        179.9564         estimate D2E/DX2                !
 ! D65   D(36,26,28,33)         -0.5565         estimate D2E/DX2                !
 ! D66   D(28,26,29,30)         -0.0388         estimate D2E/DX2                !
 ! D67   D(28,26,29,34)        179.4428         estimate D2E/DX2                !
 ! D68   D(36,26,29,30)        179.9628         estimate D2E/DX2                !
 ! D69   D(36,26,29,34)         -0.5556         estimate D2E/DX2                !
 ! D70   D(31,27,28,26)          0.081          estimate D2E/DX2                !
 ! D71   D(31,27,28,33)       -179.4084         estimate D2E/DX2                !
 ! D72   D(32,27,28,26)        178.3199         estimate D2E/DX2                !
 ! D73   D(32,27,28,33)         -1.1695         estimate D2E/DX2                !
 ! D74   D(28,27,31,16)        179.9802         estimate D2E/DX2                !
 ! D75   D(28,27,31,30)         -0.0381         estimate D2E/DX2                !
 ! D76   D(32,27,31,16)          1.7399         estimate D2E/DX2                !
 ! D77   D(32,27,31,30)       -178.2783         estimate D2E/DX2                !
 ! D78   D(26,29,30,31)          0.082          estimate D2E/DX2                !
 ! D79   D(26,29,30,35)        178.3105         estimate D2E/DX2                !
 ! D80   D(34,29,30,31)       -179.402          estimate D2E/DX2                !
 ! D81   D(34,29,30,35)         -1.1735         estimate D2E/DX2                !
 ! D82   D(29,30,31,16)        179.9385         estimate D2E/DX2                !
 ! D83   D(29,30,31,27)         -0.0432         estimate D2E/DX2                !
 ! D84   D(35,30,31,16)          1.7088         estimate D2E/DX2                !
 ! D85   D(35,30,31,27)       -178.2729         estimate D2E/DX2                !
 --------------------------------------------------------------------------------
 Trust Radius=3.00D-01 FncErr=1.00D-07 GrdErr=1.00D-06
 Number of steps in this run= 196 maximum allowed number of steps= 216.
 GradGradGradGradGradGradGradGradGradGradGradGradGradGradGradGradGradGrad

                          Input orientation:                          
 ---------------------------------------------------------------------
 Center     Atomic      Atomic             Coordinates (Angstroms)
 Number     Number       Type             X           Y           Z
 ---------------------------------------------------------------------
      1         32           0       -2.696667    0.001752   -0.000440
      2          6           0       -3.399677    1.827680   -0.219295
      3          9           0       -3.167211    2.284010   -1.469255
      4          9           0       -4.733396    1.851411   -0.008186
      5          9           0       -2.825477    2.684769    0.648924
      6          6           0       -3.411623   -1.102823   -1.466355
      7          9           0       -3.159596   -2.411327   -1.244613
      8          9           0       -4.749173   -0.948474   -1.573310
      9          9           0       -2.858631   -0.767335   -2.649354
     10          6           0       -3.389972   -0.723958    1.694055
     11          9           0       -4.727194   -0.901369    1.628605
     12          9           0       -2.825982   -1.915574    1.980176
     13          9           0       -3.130348    0.116530    2.718666
     14          6           0       -0.838011    0.002222   -0.007428
     15          6           0        0.379959    0.001847   -0.008731
     16          6           0        4.632586   -0.000042   -0.004833
     17          6           0        2.518497   -1.149823    0.372855
     18          6           0        3.906991   -1.144074    0.373317
     19          6           0        3.908903    1.144448   -0.385281
     20          6           0        2.520405    1.151337   -0.388439
     21          6           0        1.802897    0.001118   -0.008530
     22          1           0        1.974651   -2.038154    0.676335
     23          1           0        4.440736   -2.031779    0.697122
     24          1           0        4.444223    2.031761   -0.707559
     25          1           0        1.978118    2.040247   -0.693004
     26          6           0        8.933229   -0.001430    0.004119
     27          6           0        6.837511   -1.141178   -0.393508
     28          6           0        8.230966   -1.141146   -0.391177
     29          6           0        8.230034    1.138783    0.396306
     30          6           0        6.836582    1.139782    0.392535
     31          6           0        6.116022   -0.000458   -0.002040
     32          1           0        6.301812   -2.024038   -0.728992
     33          1           0        8.768841   -2.030341   -0.706675
     34          1           0        8.767135    2.027586    0.714218
     35          1           0        6.300041    2.022972    0.725794
     36          1           0       10.019071   -0.001822    0.006546
 ---------------------------------------------------------------------
                    Distance matrix (angstroms):
                    1          2          3          4          5
     1  Ge   0.000000
     2  C    1.968790   0.000000
     3  F    2.754547   1.350806   0.000000
     4  F    2.751284   1.350532   2.185132   0.000000
     5  F    2.763484   1.348374   2.182675   2.183216   0.000000
     6  C    1.969811   3.184831   3.395642   3.549766   4.377651
     7  F    2.754128   4.367848   4.700714   4.709197   5.446771
     8  F    2.754928   3.370686   3.600331   3.207681   4.673263
     9  F    2.763055   3.596112   3.286116   4.165134   4.774595
    10  C    1.969426   3.189335   4.370815   3.366740   3.609761
    11  F    2.755441   3.553132   4.709238   3.202643   4.175726
    12  F    2.759656   4.379355   5.445321   4.667118   4.789091
    13  F    2.755865   3.410599   4.715720   3.607672   3.312496
    14  C    1.858669   3.152668   3.573327   4.312021   3.402481
    15  C    3.076637   4.202815   4.463610   5.437581   4.231477
    16  C    7.329255   8.240377   8.258224   9.547225   7.953509
    17  C    5.353822   6.651387   6.892884   7.857643   6.583188
    18  C    6.712742   7.910114   8.074105   9.152855   7.749976
    19  C    6.714716   7.342322   7.248792   8.679362   6.985273
    20  C    5.356298   5.960992   5.899160   7.297419   5.657384
    21  C    4.499571   5.517928   5.661032   6.793137   5.390369
    22  H    5.142028   6.680586   7.051482   7.784291   6.734091
    23  H    7.454151   8.786770   9.011109   9.987058   8.662909
    24  H    7.457430   7.861731   7.653609   9.205995   7.423948
    25  H    5.146719   5.402801   5.209261   6.749004   5.028986
    26  C   11.629897  12.469809  12.402206  13.791657  12.078850
    27  C    9.610481  10.660417  10.629375  11.957841  10.444993
    28  C   10.994183  12.004804  11.950414  13.310776  11.745823
    29  C   10.992863  11.666350  11.605561  12.989302  11.165940
    30  C    9.608974  10.277575  10.239697  11.598766   9.788161
    31  C    8.812689   9.692152   9.672121  11.006331   9.358665
    32  H    9.252418  10.450570  10.429270  11.718126  10.362380
    33  H   11.665592  12.774768  12.714735  14.066495  12.589604
    34  H   11.663340  12.204209  12.135152  13.520993  11.611408
    35  H    9.249514   9.747608   9.721895  11.059154   9.149807
    36  H   12.715740  13.544773  13.464065  14.868422  13.138220
                    6          7          8          9         10
     6  C    0.000000
     7  F    1.350877   0.000000
     8  F    1.350668   2.185117   0.000000
     9  F    1.348273   2.183251   2.182849   0.000000
    10  C    3.183112   3.396477   3.545914   4.376003   0.000000
    11  F    3.368989   3.604541   3.202337   4.670163   1.350526
    12  F    3.589166   3.279685   4.154661   4.769913   1.349036
    13  F    4.368105   4.700904   4.709128   5.447081   1.350427
    14  C    3.158017   3.570098   4.318912   3.413927   3.151966
    15  C    4.209639   4.458617   5.446009   4.248882   4.199840
    16  C    8.249938   8.250421   9.559134   7.981263   8.232358
    17  C    6.208963   6.037246   7.526429   6.180093   6.069344
    18  C    7.546403   7.359367   8.874502   7.419711   7.427416
    19  C    7.733631   7.958999   8.986324   7.387859   7.815891
    20  C    6.436777   6.759291   7.658974   6.142236   6.541106
    21  C    5.525863   5.654567   6.802932   5.412422   5.512751
    22  H    5.871790   5.494524   7.173431   6.002983   5.616231
    23  H    8.197752   7.853626   9.528003   8.128867   8.001516
    24  H    8.492097   8.823124   9.703085   8.058361   8.645019
    25  H    6.286992   6.820329   7.413760   5.924860   6.492709
    26  C   12.480815  12.393682  13.805553  12.110966  12.459503
    27  C   10.305204  10.113348  11.648189   9.962117  10.446693
    28  C   11.692192  11.492894  13.035282  11.323350  11.813909
    29  C   12.000937  12.042407  13.292699  11.656235  11.839700
    30  C   10.654129  10.733788  11.935455  10.338633  10.476158
    31  C    9.702342   9.664024  11.019078   9.388331   9.683187
    32  H    9.784843   9.483359  11.135258   9.443559  10.074326
    33  H   12.239326  11.946637  13.588900  11.856108  12.462218
    34  H   12.762308  12.875864  14.027840  12.421096  12.503053
    35  H   10.435158  10.631568  11.670497  10.151784  10.118276
    36  H   13.556002  13.455422  14.882645  13.170992  13.534090
                   11         12         13         14         15
    11  F    0.000000
    12  F    2.183305   0.000000
    13  F    2.185010   2.183450   0.000000
    14  C    4.314954   3.403019   3.563631   0.000000
    15  C    5.438720   4.232058   4.446808   1.217971   0.000000
    16  C    9.543898   7.952343   8.227647   5.470598   4.252629
    17  C    7.357899   5.633233   6.246273   3.569029   2.458718
    18  C    8.728333   6.964922   7.524223   4.896326   3.728143
    19  C    9.100729   7.766453   7.761582   4.897004   3.728374
    20  C    7.798061   6.603040   6.531151   3.569957   2.459068
    21  C    6.792406   5.390286   5.638069   2.640908   1.422938
    22  H    6.863951   4.976053   5.905488   3.541431   2.678425
    23  H    9.284203   7.380035   8.125465   5.700765   4.596061
    24  H    9.908370   8.698348   8.531193   5.701860   4.596428
    25  H    7.681418   6.773019   6.437127   3.543183   2.679070
    26  C   13.786080  12.076746  12.365782   9.771248   8.553280
    27  C   11.742608   9.980840  10.517874   7.769817   6.569211
    28  C   13.116818  11.334864  11.846195   9.148819   7.942985
    29  C   13.174617  11.579000  11.640302   9.147908   7.942314
    30  C   11.807416  10.257726  10.285797   7.768744   6.568401
    31  C   11.002090   9.357152   9.639050   6.954036   5.736067
    32  H   11.333915   9.521973  10.268107   7.456773   6.300105
    33  H   13.743037  11.902616  12.567128   9.844382   8.659691
    34  H   13.838779  12.310626  12.215566   9.842850   8.658579
    35  H   11.444071  10.018479   9.825390   7.454719   6.298559
    36  H   14.862456  13.135945  13.426720  10.857092   9.639125
                   16         17         18         19         20
    16  C    0.000000
    17  C    2.435984   0.000000
    18  C    1.406519   1.388506   0.000000
    19  C    1.406526   2.787773   2.410976   0.000000
    20  C    2.436008   2.423821   2.787796   1.388519   0.000000
    21  C    2.829692   1.407907   2.425795   2.425779   1.407889
    22  H    3.417969   1.084897   2.150613   3.872637   3.406530
    23  H    2.158125   2.139626   1.085244   3.397479   3.872769
    24  H    2.158131   3.872750   3.397475   1.085244   2.139640
    25  H    3.417976   3.406554   3.872660   2.150600   1.084894
    26  C    4.300653   6.527140   5.167689   5.168029   6.527426
    27  C    2.512957   4.386487   3.029187   3.714956   4.888052
    28  C    3.794696   5.763343   4.391039   4.889192   6.153535
    29  C    3.794663   6.153042   4.888831   4.391251   5.763319
    30  C    2.512906   4.887590   3.714683   3.029245   4.386278
    31  C    1.483439   3.795230   2.515665   2.515762   3.795313
    32  H    2.721632   4.036309   2.779315   3.985405   4.949548
    33  H    4.660826   6.403710   5.058600   5.813912   7.019067
    34  H    4.660773   7.018400   5.813488   5.058779   6.403538
    35  H    2.721545   4.948865   3.985111   2.779178   4.035705
    36  H    5.386497   7.596756   6.228706   6.229094   7.597090
                   21         22         23         24         25
    21  C    0.000000
    22  H    2.158048   0.000000
    23  H    3.404234   2.466181   0.000000
    24  H    3.404226   4.957636   4.299477   0.000000
    25  H    2.158067   4.302146   4.957654   2.466163   0.000000
    26  C    7.130344   7.281616   4.978460   4.979109   7.282032
    27  C    5.176909   5.059302   2.779780   3.986728   5.815915
    28  C    6.539974   6.409811   4.042705   4.950440   7.022141
    29  C    6.539592   7.021479   4.949923   4.043302   6.409812
    30  C    5.176427   5.815341   3.986433   2.780147   5.059042
    31  C    4.313130   4.665121   2.724275   2.724442   4.665207
    32  H    4.986036   4.549667   2.344667   4.461009   5.934142
    33  H    7.289623   6.933527   4.550070   5.933211   7.917310
    34  H    7.289002   7.916408   5.932661   4.550718   6.933339
    35  H    4.985121   5.933312   4.460812   2.344918   4.548879
    36  H    8.216188   8.325140   5.976240   5.976984   8.325644
                   26         27         28         29         30
    26  C    0.000000
    27  C    2.418505   0.000000
    28  C    1.395846   1.393457   0.000000
    29  C    1.395844   2.785884   2.412096   0.000000
    30  C    2.418504   2.412601   2.785883   1.393457   0.000000
    31  C    2.817214   1.405360   2.434252   2.434255   1.405362
    32  H    3.398934   1.085801   2.148314   3.871404   3.399053
    33  H    2.156092   2.149121   1.086055   3.398562   3.871895
    34  H    2.156092   3.871895   3.398564   1.086055   2.149119
    35  H    3.398926   3.399052   3.871400   2.148308   1.085800
    36  H    1.085845   3.403013   2.157212   2.157208   3.403011
                   31         32         33         34         35
    31  C    0.000000
    32  H    2.158206   0.000000
    33  H    3.413852   2.467138   0.000000
    34  H    3.413852   4.957452   4.299501   0.000000
    35  H    2.158211   4.300546   4.957448   2.467125   0.000000
    36  H    3.903059   4.295159   2.487297   2.487296   4.295148
                   36
    36  H    0.000000
 Stoichiometry    C17H9F9Ge
 Framework group  C1[X(C17H9F9Ge)]
 Deg. of freedom   102
 Full point group                 C1      NOp   1
 Largest Abelian subgroup         C1      NOp   1
 Largest concise Abelian subgroup C1      NOp   1
                         Standard orientation:                         
 ---------------------------------------------------------------------
 Center     Atomic      Atomic             Coordinates (Angstroms)
 Number     Number       Type             X           Y           Z
 ---------------------------------------------------------------------
      1         32           0       -2.696667    0.001752   -0.000440
      2          6           0       -3.399677    1.827680   -0.219295
      3          9           0       -3.167211    2.284010   -1.469255
      4          9           0       -4.733396    1.851411   -0.008186
      5          9           0       -2.825477    2.684769    0.648924
      6          6           0       -3.411623   -1.102823   -1.466355
      7          9           0       -3.159596   -2.411327   -1.244613
      8          9           0       -4.749173   -0.948474   -1.573310
      9          9           0       -2.858631   -0.767335   -2.649354
     10          6           0       -3.389972   -0.723958    1.694055
     11          9           0       -4.727194   -0.901369    1.628605
     12          9           0       -2.825982   -1.915574    1.980176
     13          9           0       -3.130348    0.116530    2.718666
     14          6           0       -0.838011    0.002222   -0.007428
     15          6           0        0.379959    0.001847   -0.008731
     16          6           0        4.632586   -0.000042   -0.004833
     17          6           0        2.518497   -1.149823    0.372855
     18          6           0        3.906991   -1.144074    0.373317
     19          6           0        3.908903    1.144448   -0.385281
     20          6           0        2.520405    1.151337   -0.388439
     21          6           0        1.802897    0.001118   -0.008530
     22          1           0        1.974651   -2.038154    0.676335
     23          1           0        4.440736   -2.031779    0.697122
     24          1           0        4.444223    2.031761   -0.707559
     25          1           0        1.978118    2.040247   -0.693004
     26          6           0        8.933229   -0.001430    0.004119
     27          6           0        6.837511   -1.141178   -0.393508
     28          6           0        8.230966   -1.141146   -0.391177
     29          6           0        8.230034    1.138783    0.396306
     30          6           0        6.836582    1.139782    0.392535
     31          6           0        6.116022   -0.000458   -0.002040
     32          1           0        6.301812   -2.024038   -0.728992
     33          1           0        8.768841   -2.030341   -0.706675
     34          1           0        8.767135    2.027586    0.714218
     35          1           0        6.300041    2.022972    0.725794
     36          1           0       10.019071   -0.001822    0.006546
 ---------------------------------------------------------------------
 Rotational constants (GHZ):      0.3747780      0.0549485      0.0541141
 Standard basis: 6-31+G(d,p) (6D, 7F)
 There are   573 symmetry adapted basis functions of A   symmetry.
 Integral buffers will be    131072 words long.
 Raffenetti 2 integral format.
 Two-electron integral symmetry is turned on.
   573 basis functions,   982 primitive gaussians,   573 cartesian basis functions
   112 alpha electrons      112 beta electrons
       nuclear repulsion energy      3081.5869898196 Hartrees.
 NAtoms=   36 NActive=   36 NUniq=   36 SFac= 7.50D-01 NAtFMM=   80 NAOKFM=F Big=F
 ------------------------------------------------------------------------------
 Polarizable Continuum Model (PCM)
 =================================
 Model                : PCM.
 Atomic radii         : UFF (Universal Force Field).
 Polarization charges : Total charges.
 Charge compensation  : None.
 Solution method      : Matrix inversion.
 Cavity type          : Scaled VdW (van der Waals Surface) (Alpha=1.100).
 Cavity algorithm     : GePol (No added spheres)
                        Default sphere list used, NSphG=   36.
                        Lebedev-Laikov grids with approx.  5.0 points / Ang**2.
                        Smoothing algorithm: Karplus/York (Gamma=1.0000).
                        Polarization charges: spherical gaussians, with
                                              point-specific exponents (IZeta= 3).
                        Self-potential: point-specific (ISelfS= 7).
                        Self-field    : sphere-specific E.n sum rule (ISelfD= 2).
 1st derivatives      : Analytical E(r).r(x)/FMM algorithm (CHGder, D1EAlg=3).
                        Cavity 1st derivative terms included.
 Solvent              : Dichloromethane, Eps=   8.930000 Eps(inf)=   2.028346
 ------------------------------------------------------------------------------
 One-electron integrals computed using PRISM.
 NBasis=   573 RedAO= T  NBF=   573
 NBsUse=   569 1.00D-06 NBFU=   569
 Harris functional with IExCor=20419 diagonalized for initial guess.
 ExpMin= 2.30D-02 ExpMax= 4.89D+05 ExpMxC= 4.74D+03 IAcc=3 IRadAn=         0 AccDes= 0.00D+00
 HarFok:  IExCor=20419 AccDes= 0.00D+00 IRadAn=         0 IDoV= 1
 ScaDFX=  1.000000  1.000000  1.000000  1.000000
 FoFCou: FMM=F IPFlag=           0 FMFlag=      100000 FMFlg1=           0
         NFxFlg=           0 DoJE=T BraDBF=F KetDBF=T FulRan=T
         Omega=  0.000000  0.000000  1.000000  0.000000  0.000000 ICntrl=     500 IOpCl=  0
         NMat0=    1 NMatS0=    1 NMatT0=    0 NMatD0=    1 NMtDS0=    0 NMtDT0=    0
         I1Cent=           4 NGrid=           0.
 Petite list used in FoFCou.
 Initial guess orbital symmetries:
       Occupied  (A) (A) (A) (A) (A) (A) (A) (A) (A) (A) (A) (A)
                 (A) (A) (A) (A) (A) (A) (A) (A) (A) (A) (A) (A)
                 (A) (A) (A) (A) (A) (A) (A) (A) (A) (A) (A) (A)
                 (A) (A) (A) (A) (A) (A) (A) (A) (A) (A) (A) (A)
                 (A) (A) (A) (A) (A) (A) (A) (A) (A) (A) (A) (A)
                 (A) (A) (A) (A) (A) (A) (A) (A) (A) (A) (A) (A)
                 (A) (A) (A) (A) (A) (A) (A) (A) (A) (A) (A) (A)
                 (A) (A) (A) (A) (A) (A) (A) (A) (A) (A) (A) (A)
                 (A) (A) (A) (A) (A) (A) (A) (A) (A) (A) (A) (A)
                 (A) (A) (A) (A)
       Virtual   (A) (A) (A) (A) (A) (A) (A) (A) (A) (A) (A) (A)
                 (A) (A) (A) (A) (A) (A) (A) (A) (A) (A) (A) (A)
                 (A) (A) (A) (A) (A) (A) (A) (A) (A) (A) (A) (A)
                 (A) (A) (A) (A) (A) (A) (A) (A) (A) (A) (A) (A)
                 (A) (A) (A) (A) (A) (A) (A) (A) (A) (A) (A) (A)
                 (A) (A) (A) (A) (A) (A) (A) (A) (A) (A) (A) (A)
                 (A) (A) (A) (A) (A) (A) (A) (A) (A) (A) (A) (A)
                 (A) (A) (A) (A) (A) (A) (A) (A) (A) (A) (A) (A)
                 (A) (A) (A) (A) (A) (A) (A) (A) (A) (A) (A) (A)
                 (A) (A) (A) (A) (A) (A) (A) (A) (A) (A) (A) (A)
                 (A) (A) (A) (A) (A) (A) (A) (A) (A) (A) (A) (A)
                 (A) (A) (A) (A) (A) (A) (A) (A) (A) (A) (A) (A)
                 (A) (A) (A) (A) (A) (A) (A) (A) (A) (A) (A) (A)
                 (A) (A) (A) (A) (A) (A) (A) (A) (A) (A) (A) (A)
                 (A) (A) (A) (A) (A) (A) (A) (A) (A) (A) (A) (A)
                 (A) (A) (A) (A) (A) (A) (A) (A) (A) (A) (A) (A)
                 (A) (A) (A) (A) (A) (A) (A) (A) (A) (A) (A) (A)
                 (A) (A) (A) (A) (A) (A) (A) (A) (A) (A) (A) (A)
                 (A) (A) (A) (A) (A) (A) (A) (A) (A) (A) (A) (A)
                 (A) (A) (A) (A) (A) (A) (A) (A) (A) (A) (A) (A)
                 (A) (A) (A) (A) (A) (A) (A) (A) (A) (A) (A) (A)
                 (A) (A) (A) (A) (A) (A) (A) (A) (A) (A) (A) (A)
                 (A) (A) (A) (A) (A) (A) (A) (A) (A) (A) (A) (A)
                 (A) (A) (A) (A) (A) (A) (A) (A) (A) (A) (A) (A)
                 (A) (A) (A) (A) (A) (A) (A) (A) (A) (A) (A) (A)
                 (A) (A) (A) (A) (A) (A) (A) (A) (A) (A) (A) (A)
                 (A) (A) (A) (A) (A) (A) (A) (A) (A) (A) (A) (A)
                 (A) (A) (A) (A) (A) (A) (A) (A) (A) (A) (A) (A)
                 (A) (A) (A) (A) (A) (A) (A) (A) (A) (A) (A) (A)
                 (A) (A) (A) (A) (A) (A) (A) (A) (A) (A) (A) (A)
                 (A) (A) (A) (A) (A) (A) (A) (A) (A) (A) (A) (A)
                 (A) (A) (A) (A) (A) (A) (A) (A) (A) (A) (A) (A)
                 (A) (A) (A) (A) (A) (A) (A) (A) (A) (A) (A) (A)
                 (A) (A) (A) (A) (A) (A) (A) (A) (A) (A) (A) (A)
                 (A) (A) (A) (A) (A) (A) (A) (A) (A) (A) (A) (A)
                 (A) (A) (A) (A) (A) (A) (A) (A) (A) (A) (A) (A)
                 (A) (A) (A) (A) (A) (A) (A) (A) (A) (A) (A) (A)
                 (A) (A) (A) (A) (A) (A) (A) (A) (A) (A) (A) (A)
                 (A)
 The electronic state of the initial guess is 1-A.
 Requested convergence on RMS density matrix=1.00D-08 within 128 cycles.
 Requested convergence on MAX density matrix=1.00D-06.
 Requested convergence on             energy=1.00D-06.
 No special actions if energy rises.
 FoFJK:  IHMeth= 1 ICntrl=     0 DoSepK=T KAlg= 1 I1Cent= 0 FoldK=F
 FoFJK:  IHMeth= 1 ICntrl=     0 DoSepK=T KAlg= 1 I1Cent= 0 FoldK=F
 FoFJK:  IHMeth= 1 ICntrl=     0 DoSepK=T KAlg= 1 I1Cent= 0 FoldK=F
 FoFJK:  IHMeth= 1 ICntrl=     0 DoSepK=T KAlg= 1 I1Cent= 0 FoldK=F
 FoFJK:  IHMeth= 1 ICntrl=     0 DoSepK=T KAlg= 1 I1Cent= 0 FoldK=F
 FoFJK:  IHMeth= 1 ICntrl=     0 DoSepK=T KAlg= 1 I1Cent= 0 FoldK=F
 FoFJK:  IHMeth= 1 ICntrl=     0 DoSepK=T KAlg= 1 I1Cent= 0 FoldK=F
 FoFJK:  IHMeth= 1 ICntrl=     0 DoSepK=T KAlg= 1 I1Cent= 0 FoldK=F
 FoFJK:  IHMeth= 1 ICntrl=     0 DoSepK=T KAlg= 1 I1Cent= 0 FoldK=F
 FoFJK:  IHMeth= 1 ICntrl=     0 DoSepK=T KAlg= 1 I1Cent= 0 FoldK=F
 FoFJK:  IHMeth= 1 ICntrl=     0 DoSepK=T KAlg= 1 I1Cent= 0 FoldK=F
 FoFJK:  IHMeth= 1 ICntrl=     0 DoSepK=T KAlg= 1 I1Cent= 0 FoldK=F
 FoFJK:  IHMeth= 1 ICntrl=     0 DoSepK=T KAlg= 1 I1Cent= 0 FoldK=F
 FoFJK:  IHMeth= 1 ICntrl=     0 DoSepK=T KAlg= 1 I1Cent= 0 FoldK=F
 FoFJK:  IHMeth= 1 ICntrl=     0 DoSepK=T KAlg= 1 I1Cent= 0 FoldK=F
 Error on total polarization charges =  0.01768
 SCF Done:  E(RCAM-B3LYP) =  -3626.43306166     A.U. after   15 cycles
             Convg  =    0.5785D-08             -V/T =  2.0063
 ExpMin= 2.30D-02 ExpMax= 4.89D+05 ExpMxC= 4.74D+03 IAcc=3 IRadAn=         5 AccDes= 0.00D+00
 HarFok:  IExCor=  205 AccDes= 0.00D+00 IRadAn=         5 IDoV=-2
 ScaDFX=  1.000000  1.000000  1.000000  1.000000
 High-energy alpha orbitals treated as core:      41   42   43
 Low-energy alpha orbitals treated as valence:    36   37   38
 Reordering alpha orbitals on disk:
 Alpha orbital 36 was Aufbau orbital 39
 Alpha orbital 37 was Aufbau orbital 40
 Alpha orbital 38 was Aufbau orbital 41
 Alpha orbital 39 was Aufbau orbital 42
 Alpha orbital 40 was Aufbau orbital 43
 Alpha orbital 41 was Aufbau orbital 36
 Alpha orbital 42 was Aufbau orbital 37
 Alpha orbital 43 was Aufbau orbital 38
 Range of M.O.s used for correlation:    41   569
 NBasis=   573 NAE=   112 NBE=   112 NFC=    40 NFV=     0
 NROrb=    529 NOA=    72 NOB=    72 NVA=   457 NVB=   457

 **** Warning!!: The largest alpha MO coefficient is  0.11827931D+03

 Would need an additional 39208900000 words for in-memory AO integral storage.
 NEqPCM:  Using equilibrium solvation (IEInf=0, Eps=   8.9300, EpsInf=   2.0283)
 Orbital symmetries:
       Occupied  (A) (A) (A) (A) (A) (A) (A) (A) (A) (A) (A) (A)
                 (A) (A) (A) (A) (A) (A) (A) (A) (A) (A) (A) (A)
                 (A) (A) (A) (A) (A) (A) (A) (A) (A) (A) (A) (A)
                 (A) (A) (A) (A) (A) (A) (A) (A) (A) (A) (A) (A)
                 (A) (A) (A) (A) (A) (A) (A) (A) (A) (A) (A) (A)
                 (A) (A) (A) (A) (A) (A) (A) (A) (A) (A) (A) (A)
                 (A) (A) (A) (A) (A) (A) (A) (A) (A) (A) (A) (A)
                 (A) (A) (A) (A) (A) (A) (A) (A) (A) (A) (A) (A)
                 (A) (A) (A) (A) (A) (A) (A) (A) (A) (A) (A) (A)
                 (A) (A) (A) (A)
       Virtual   (A) (A) (A) (A) (A) (A) (A) (A) (A) (A) (A) (A)
                 (A) (A) (A) (A) (A) (A) (A) (A) (A) (A) (A) (A)
                 (A) (A) (A) (A) (A) (A) (A) (A) (A) (A) (A) (A)
                 (A) (A) (A) (A) (A) (A) (A) (A) (A) (A) (A) (A)
                 (A) (A) (A) (A) (A) (A) (A) (A) (A) (A) (A) (A)
                 (A) (A) (A) (A) (A) (A) (A) (A) (A) (A) (A) (A)
                 (A) (A) (A) (A) (A) (A) (A) (A) (A) (A) (A) (A)
                 (A) (A) (A) (A) (A) (A) (A) (A) (A) (A) (A) (A)
                 (A) (A) (A) (A) (A) (A) (A) (A) (A) (A) (A) (A)
                 (A) (A) (A) (A) (A) (A) (A) (A) (A) (A) (A) (A)
                 (A) (A) (A) (A) (A) (A) (A) (A) (A) (A) (A) (A)
                 (A) (A) (A) (A) (A) (A) (A) (A) (A) (A) (A) (A)
                 (A) (A) (A) (A) (A) (A) (A) (A) (A) (A) (A) (A)
                 (A) (A) (A) (A) (A) (A) (A) (A) (A) (A) (A) (A)
                 (A) (A) (A) (A) (A) (A) (A) (A) (A) (A) (A) (A)
                 (A) (A) (A) (A) (A) (A) (A) (A) (A) (A) (A) (A)
                 (A) (A) (A) (A) (A) (A) (A) (A) (A) (A) (A) (A)
                 (A) (A) (A) (A) (A) (A) (A) (A) (A) (A) (A) (A)
                 (A) (A) (A) (A) (A) (A) (A) (A) (A) (A) (A) (A)
                 (A) (A) (A) (A) (A) (A) (A) (A) (A) (A) (A) (A)
                 (A) (A) (A) (A) (A) (A) (A) (A) (A) (A) (A) (A)
                 (A) (A) (A) (A) (A) (A) (A) (A) (A) (A) (A) (A)
                 (A) (A) (A) (A) (A) (A) (A) (A) (A) (A) (A) (A)
                 (A) (A) (A) (A) (A) (A) (A) (A) (A) (A) (A) (A)
                 (A) (A) (A) (A) (A) (A) (A) (A) (A) (A) (A) (A)
                 (A) (A) (A) (A) (A) (A) (A) (A) (A) (A) (A) (A)
                 (A) (A) (A) (A) (A) (A) (A) (A) (A) (A) (A) (A)
                 (A) (A) (A) (A) (A) (A) (A) (A) (A) (A) (A) (A)
                 (A) (A) (A) (A) (A) (A) (A) (A) (A) (A) (A) (A)
                 (A) (A) (A) (A) (A) (A) (A) (A) (A) (A) (A) (A)
                 (A) (A) (A) (A) (A) (A) (A) (A) (A) (A) (A) (A)
                 (A) (A) (A) (A) (A) (A) (A) (A) (A) (A) (A) (A)
                 (A) (A) (A) (A) (A) (A) (A) (A) (A) (A) (A) (A)
                 (A) (A) (A) (A) (A) (A) (A) (A) (A) (A) (A) (A)
                 (A) (A) (A) (A) (A) (A) (A) (A) (A) (A) (A) (A)
                 (A) (A) (A) (A) (A) (A) (A) (A) (A) (A) (A) (A)
                 (A) (A) (A) (A) (A) (A) (A) (A) (A) (A) (A) (A)
                 (A) (A) (A) (A) (A) (A) (A) (A) (A) (A) (A) (A)
                 (A)
    16 initial guesses have been made.
 Convergence on wavefunction:    0.000001000000000
 Iteration     1 Dimension    16 NMult    16
 CISAX will form    16 AO SS matrices at one time.
 FoFJK:  IHMeth= 1 ICntrl=     0 DoSepK=T KAlg= 1 I1Cent= 0 FoldK=F
 FoFJK:  IHMeth= 1 ICntrl=     0 DoSepK=T KAlg= 1 I1Cent= 0 FoldK=F
 New state      2 was old state      3
 New state      3 was old state      2
 Iteration     2 Dimension    24 NMult    24
 FoFJK:  IHMeth= 1 ICntrl=     0 DoSepK=T KAlg= 1 I1Cent= 0 FoldK=F
 FoFJK:  IHMeth= 1 ICntrl=     0 DoSepK=T KAlg= 1 I1Cent= 0 FoldK=F
 Iteration     3 Dimension    32 NMult    32
 FoFJK:  IHMeth= 1 ICntrl=     0 DoSepK=T KAlg= 1 I1Cent= 0 FoldK=F
 FoFJK:  IHMeth= 1 ICntrl=     0 DoSepK=T KAlg= 1 I1Cent= 0 FoldK=F
 Iteration     4 Dimension    40 NMult    40
 FoFJK:  IHMeth= 1 ICntrl=     0 DoSepK=T KAlg= 1 I1Cent= 0 FoldK=F
 FoFJK:  IHMeth= 1 ICntrl=     0 DoSepK=T KAlg= 1 I1Cent= 0 FoldK=F
 Iteration     5 Dimension    48 NMult    48
 FoFJK:  IHMeth= 1 ICntrl=     0 DoSepK=T KAlg= 1 I1Cent= 0 FoldK=F
 FoFJK:  IHMeth= 1 ICntrl=     0 DoSepK=T KAlg= 1 I1Cent= 0 FoldK=F
 Iteration     6 Dimension    56 NMult    56
 FoFJK:  IHMeth= 1 ICntrl=     0 DoSepK=T KAlg= 1 I1Cent= 0 FoldK=F
 FoFJK:  IHMeth= 1 ICntrl=     0 DoSepK=T KAlg= 1 I1Cent= 0 FoldK=F
 Iteration     7 Dimension    64 NMult    64
 FoFJK:  IHMeth= 1 ICntrl=     0 DoSepK=T KAlg= 1 I1Cent= 0 FoldK=F
 FoFJK:  IHMeth= 1 ICntrl=     0 DoSepK=T KAlg= 1 I1Cent= 0 FoldK=F
 Iteration     8 Dimension    72 NMult    72
 FoFJK:  IHMeth= 1 ICntrl=     0 DoSepK=T KAlg= 1 I1Cent= 0 FoldK=F
 FoFJK:  IHMeth= 1 ICntrl=     0 DoSepK=T KAlg= 1 I1Cent= 0 FoldK=F
 Iteration     9 Dimension    80 NMult    80
 FoFJK:  IHMeth= 1 ICntrl=     0 DoSepK=T KAlg= 1 I1Cent= 0 FoldK=F
 FoFJK:  IHMeth= 1 ICntrl=     0 DoSepK=T KAlg= 1 I1Cent= 0 FoldK=F
 Iteration    10 Dimension    88 NMult    88
 FoFJK:  IHMeth= 1 ICntrl=     0 DoSepK=T KAlg= 1 I1Cent= 0 FoldK=F
 FoFJK:  IHMeth= 1 ICntrl=     0 DoSepK=T KAlg= 1 I1Cent= 0 FoldK=F
 Iteration    11 Dimension    96 NMult    96
 FoFJK:  IHMeth= 1 ICntrl=     0 DoSepK=T KAlg= 1 I1Cent= 0 FoldK=F
 FoFJK:  IHMeth= 1 ICntrl=     0 DoSepK=T KAlg= 1 I1Cent= 0 FoldK=F
 Iteration    12 Dimension   102 NMult   102
 FoFJK:  IHMeth= 1 ICntrl=     0 DoSepK=T KAlg= 1 I1Cent= 0 FoldK=F
 FoFJK:  IHMeth= 1 ICntrl=     0 DoSepK=T KAlg= 1 I1Cent= 0 FoldK=F
 Iteration    13 Dimension   104 NMult   104
 FoFJK:  IHMeth= 1 ICntrl=     0 DoSepK=T KAlg= 1 I1Cent= 0 FoldK=F
 FoFJK:  IHMeth= 1 ICntrl=     0 DoSepK=T KAlg= 1 I1Cent= 0 FoldK=F
 Iteration    14 Dimension   106 NMult   106
 FoFJK:  IHMeth= 1 ICntrl=     0 DoSepK=T KAlg= 1 I1Cent= 0 FoldK=F
 FoFJK:  IHMeth= 1 ICntrl=     0 DoSepK=T KAlg= 1 I1Cent= 0 FoldK=F
 Iteration    15 Dimension   108 NMult   108
 FoFJK:  IHMeth= 1 ICntrl=     0 DoSepK=T KAlg= 1 I1Cent= 0 FoldK=F
 FoFJK:  IHMeth= 1 ICntrl=     0 DoSepK=T KAlg= 1 I1Cent= 0 FoldK=F
 ***********************************************************************
 Excited states from <AA,BB:AA,BB> singles matrix:
 ***********************************************************************
 
 Ground to excited state transition electric dipole moments (Au):
       state          X           Y           Z        Dip. S.      Osc.
         1        -3.6703     -0.0287     -0.0100     13.4718      1.4208
         2         0.0039      0.3604     -0.1202      0.1444      0.0173
         3        -0.0001      0.2645      0.0529      0.0727      0.0091
         4        -0.0603      0.0194     -0.0452      0.0061      0.0008
 Ground to excited state transition velocity dipole moments (Au):
       state          X           Y           Z        Dip. S.      Osc.
         1         0.5690      0.0050      0.0017      0.3238      1.3646
         2        -0.0007     -0.0630      0.0193      0.0043      0.0161
         3         0.0000     -0.0494     -0.0081      0.0025      0.0089
         4         0.0111     -0.0041      0.0096      0.0002      0.0008
 Ground to excited state transition magnetic dipole moments (Au):
       state          X           Y           Z
         1        -0.0586     -0.0009     -0.0383
         2        -0.0006     -0.1611     -0.5969
         3        -0.0001      0.1233     -0.5272
         4         0.1535      0.0672      0.0105
 <0|del|b> * <b|rxdel|0> + <0|del|b> * <b|delr+rdel|0>
 Rotatory Strengths (R) in cgs (10**-40 erg-esu-cm/Gauss)
       state          XX          YY          ZZ    R(velocity)
         1        -0.1956    -54.1830    -95.0776    -49.8187
 Total R(velocity) tensor for State=          1
                 1             2             3 
      1  -0.195585D+00 -0.385806D+02  0.176940D+03
      2   0.747776D+00 -0.541830D+02 -0.908209D+02
      3   0.129889D+01 -0.115701D+03 -0.950776D+02
 R(velocity) tensor in inp. orien. for State=          1
                 1             2             3 
      1  -0.195585D+00 -0.385806D+02  0.176940D+03
      2   0.747776D+00 -0.541830D+02 -0.908209D+02
      3   0.129889D+01 -0.115701D+03 -0.950776D+02
         2        -3.6058     -9.0628      7.2700     -1.7995
 Total R(velocity) tensor for State=          2
                 1             2             3 
      1  -0.360583D+01  0.218385D+00  0.578183D+00
      2   0.495898D-01 -0.906276D+01 -0.295679D+02
      3  -0.601851D-01  0.222885D+01  0.727000D+01
 R(velocity) tensor in inp. orien. for State=          2
                 1             2             3 
      1  -0.360583D+01  0.218385D+00  0.578183D+00
      2   0.495898D-01 -0.906276D+01 -0.295679D+02
      3  -0.601851D-01  0.222885D+01  0.727000D+01
         3        -7.1122      0.0206      0.2282     -2.2878
 Total R(velocity) tensor for State=          3
                 1             2             3 
      1  -0.711221D+01 -0.134233D-01  0.870728D-01
      2  -0.124557D-01  0.205840D-01 -0.125469D+00
      3  -0.170392D-02 -0.374382D-01  0.228221D+00
 R(velocity) tensor in inp. orien. for State=          3
                 1             2             3 
      1  -0.711221D+01 -0.134233D-01  0.870728D-01
      2  -0.124557D-01  0.205840D-01 -0.125469D+00
      3  -0.170392D-02 -0.374382D-01  0.228221D+00
         4        -0.5956      2.1930      4.0766      1.8913
 Total R(velocity) tensor for State=          4
                 1             2             3 
      1  -0.595611D+00 -0.650198D+01 -0.207614D+01
      2   0.128313D+00  0.219297D+01  0.784584D+00
      3  -0.321732D+01  0.791763D+00  0.407659D+01
 R(velocity) tensor in inp. orien. for State=          4
                 1             2             3 
      1  -0.595611D+00 -0.650198D+01 -0.207614D+01
      2   0.128313D+00  0.219297D+01  0.784584D+00
      3  -0.321732D+01  0.791763D+00  0.407659D+01
 1/2[<0|r|b>*<b|rxdel|0> + (<0|rxdel|b>*<b|r|0>)*]
 Rotatory Strengths (R) in cgs (10**-40 erg-esu-cm/Gauss)
       state          XX          YY          ZZ     R(length)     R(au)
         1      -152.1828     -0.0185     -0.2716    -50.8243     -0.1078
         2         0.0015     41.0630    -50.7265     -3.2207     -0.0068
         3         0.0000    -23.0668     19.7371     -1.1099     -0.0024
         4         6.5501     -0.9222      0.3350      1.9877      0.0042
  1/2[<0|del|b>*<b|r|0> + (<0|r|b>*<b|del|0>)*] (Au)
       state          X           Y           Z        Dip. S.   Osc.(frdel)
         1        -2.0885     -0.0001      0.0000      2.0886      1.3924
         2         0.0000     -0.0227     -0.0023      0.0250      0.0167
         3         0.0000     -0.0131     -0.0004      0.0135      0.0090
         4        -0.0007     -0.0001     -0.0004      0.0012      0.0008
 Ground to excited state transition densities written to RWF  633

 Excitation energies and oscillator strengths:
 
 Excited State   1:      Singlet-A      4.3047 eV  288.02 nm  f=1.4208  <S**2>=0.000
     109 ->113         0.10616
     112 ->113         0.67959
 This state for optimization and/or second-order correction.
 Copying the excited state density for this state as the 1-particle RhoCI density.
 
 Excited State   2:      Singlet-A      4.8959 eV  253.24 nm  f=0.0173  <S**2>=0.000
     109 ->115         0.10649
     110 ->113         0.54932
     112 ->115         0.38327
 
 Excited State   3:      Singlet-A      5.1090 eV  242.68 nm  f=0.0091  <S**2>=0.000
     109 ->118        -0.17878
     111 ->113         0.45927
     111 ->117         0.29351
     112 ->118         0.33757
 
 Excited State   4:      Singlet-A      5.1948 eV  238.67 nm  f=0.0008  <S**2>=0.000
     107 ->114         0.17820
     108 ->113         0.15747
     109 ->114         0.34358
     112 ->114         0.51289
 SavETr:  write IOETrn=   770 NScale= 10 NData=  16 NLR=1 LETran=      82.
 FoFJK:  IHMeth= 1 ICntrl=     0 DoSepK=T KAlg= 1 I1Cent= 0 FoldK=F
 FoFJK:  IHMeth= 1 ICntrl=     0 DoSepK=T KAlg= 1 I1Cent= 0 FoldK=F
          IDoAtm=111111111111111111111111111111111111
 NEqPCM:  Using equilibrium solvation (IEInf=0, Eps=   8.9300, EpsInf=   2.0283)
          Differentiating once with respect to electric field.
                with respect to dipole field.
          Differentiating once with respect to nuclear coordinates.
          There are     1 degrees of freedom in the 1st order CPHF.  IDoFFX=0.
 FoFJK:  IHMeth= 1 ICntrl=     0 DoSepK=T KAlg= 1 I1Cent= 0 FoldK=F
 LinEq1:  Iter=  0 NonCon=     1 RMS=8.37D-04 Max=4.92D-02
 AX will form     1 AO Fock derivatives at one time.
 FoFJK:  IHMeth= 1 ICntrl=     0 DoSepK=T KAlg= 1 I1Cent= 0 FoldK=F
 LinEq1:  Iter=  1 NonCon=     1 RMS=5.42D-04 Max=3.49D-02
 FoFJK:  IHMeth= 1 ICntrl=     0 DoSepK=T KAlg= 1 I1Cent= 0 FoldK=F
 LinEq1:  Iter=  2 NonCon=     1 RMS=3.74D-04 Max=3.30D-02
 FoFJK:  IHMeth= 1 ICntrl=     0 DoSepK=T KAlg= 1 I1Cent= 0 FoldK=F
 LinEq1:  Iter=  3 NonCon=     1 RMS=1.82D-04 Max=2.45D-02
 FoFJK:  IHMeth= 1 ICntrl=     0 DoSepK=T KAlg= 1 I1Cent= 0 FoldK=F
 LinEq1:  Iter=  4 NonCon=     1 RMS=7.91D-05 Max=5.15D-03
 FoFJK:  IHMeth= 1 ICntrl=     0 DoSepK=T KAlg= 1 I1Cent= 0 FoldK=F
 LinEq1:  Iter=  5 NonCon=     1 RMS=4.27D-05 Max=2.45D-03
 FoFJK:  IHMeth= 1 ICntrl=     0 DoSepK=T KAlg= 1 I1Cent= 0 FoldK=F
 LinEq1:  Iter=  6 NonCon=     1 RMS=2.13D-05 Max=2.87D-03
 FoFJK:  IHMeth= 1 ICntrl=     0 DoSepK=T KAlg= 1 I1Cent= 0 FoldK=F
 LinEq1:  Iter=  7 NonCon=     1 RMS=1.13D-05 Max=9.60D-04
 FoFJK:  IHMeth= 1 ICntrl=     0 DoSepK=T KAlg= 1 I1Cent= 0 FoldK=F
 LinEq1:  Iter=  8 NonCon=     1 RMS=3.68D-06 Max=2.28D-04
 FoFJK:  IHMeth= 1 ICntrl=     0 DoSepK=T KAlg= 1 I1Cent= 0 FoldK=F
 LinEq1:  Iter=  9 NonCon=     1 RMS=1.60D-06 Max=8.24D-05
 FoFJK:  IHMeth= 1 ICntrl=     0 DoSepK=T KAlg= 1 I1Cent= 0 FoldK=F
 LinEq1:  Iter= 10 NonCon=     1 RMS=7.51D-07 Max=4.05D-05
 FoFJK:  IHMeth= 1 ICntrl=     0 DoSepK=T KAlg= 1 I1Cent= 0 FoldK=F
 LinEq1:  Iter= 11 NonCon=     1 RMS=3.60D-07 Max=2.49D-05
 FoFJK:  IHMeth= 1 ICntrl=     0 DoSepK=T KAlg= 1 I1Cent= 0 FoldK=F
 LinEq1:  Iter= 12 NonCon=     1 RMS=1.44D-07 Max=1.04D-05
 FoFJK:  IHMeth= 1 ICntrl=     0 DoSepK=T KAlg= 1 I1Cent= 0 FoldK=F
 LinEq1:  Iter= 13 NonCon=     1 RMS=6.95D-08 Max=5.92D-06
 FoFJK:  IHMeth= 1 ICntrl=     0 DoSepK=T KAlg= 1 I1Cent= 0 FoldK=F
 LinEq1:  Iter= 14 NonCon=     1 RMS=2.75D-08 Max=7.87D-07
 FoFJK:  IHMeth= 1 ICntrl=     0 DoSepK=T KAlg= 1 I1Cent= 0 FoldK=F
 LinEq1:  Iter= 15 NonCon=     1 RMS=1.17D-08 Max=8.52D-07
 FoFJK:  IHMeth= 1 ICntrl=     0 DoSepK=T KAlg= 1 I1Cent= 0 FoldK=F
 LinEq1:  Iter= 16 NonCon=     1 RMS=5.22D-09 Max=1.70D-07
 FoFJK:  IHMeth= 1 ICntrl=     0 DoSepK=T KAlg= 1 I1Cent= 0 FoldK=F
 LinEq1:  Iter= 17 NonCon=     1 RMS=2.00D-09 Max=9.98D-08
 FoFJK:  IHMeth= 1 ICntrl=     0 DoSepK=T KAlg= 1 I1Cent= 0 FoldK=F
 LinEq1:  Iter= 18 NonCon=     1 RMS=1.03D-09 Max=8.02D-08
 FoFJK:  IHMeth= 1 ICntrl=     0 DoSepK=T KAlg= 1 I1Cent= 0 FoldK=F
 LinEq1:  Iter= 19 NonCon=     1 RMS=4.03D-10 Max=1.25D-08
 FoFJK:  IHMeth= 1 ICntrl=     0 DoSepK=T KAlg= 1 I1Cent= 0 FoldK=F
 LinEq1:  Iter= 20 NonCon=     1 RMS=1.45D-10 Max=1.03D-08
 FoFJK:  IHMeth= 1 ICntrl=     0 DoSepK=T KAlg= 1 I1Cent= 0 FoldK=F
 LinEq1:  Iter= 21 NonCon=     1 RMS=6.37D-11 Max=1.55D-09
 FoFJK:  IHMeth= 1 ICntrl=     0 DoSepK=T KAlg= 1 I1Cent= 0 FoldK=F
 LinEq1:  Iter= 22 NonCon=     1 RMS=2.56D-11 Max=1.52D-09
 FoFJK:  IHMeth= 1 ICntrl=     0 DoSepK=T KAlg= 1 I1Cent= 0 FoldK=F
 LinEq1:  Iter= 23 NonCon=     0 RMS=1.41D-11 Max=3.47D-10
 Linear equations converged to 1.000D-10 1.000D-09 after    23 iterations.
 FoFJK:  IHMeth= 1 ICntrl=     0 DoSepK=T KAlg= 1 I1Cent= 0 FoldK=F
 End of Minotr Frequency-dependent properties file   721 does not exist.
 End of Minotr Frequency-dependent properties file   722 does not exist.

 **********************************************************************

            Population analysis using the SCF density.

 **********************************************************************

 Orbital symmetries:
       Occupied  (A) (A) (A) (A) (A) (A) (A) (A) (A) (A) (A) (A)
                 (A) (A) (A) (A) (A) (A) (A) (A) (A) (A) (A) (A)
                 (A) (A) (A) (A) (A) (A) (A) (A) (A) (A) (A) (A)
                 (A) (A) (A) (A) (A) (A) (A) (A) (A) (A) (A) (A)
                 (A) (A) (A) (A) (A) (A) (A) (A) (A) (A) (A) (A)
                 (A) (A) (A) (A) (A) (A) (A) (A) (A) (A) (A) (A)
                 (A) (A) (A) (A) (A) (A) (A) (A) (A) (A) (A) (A)
                 (A) (A) (A) (A) (A) (A) (A) (A) (A) (A) (A) (A)
                 (A) (A) (A) (A) (A) (A) (A) (A) (A) (A) (A) (A)
                 (A) (A) (A) (A)
       Virtual   (A) (A) (A) (A) (A) (A) (A) (A) (A) (A) (A) (A)
                 (A) (A) (A) (A) (A) (A) (A) (A) (A) (A) (A) (A)
                 (A) (A) (A) (A) (A) (A) (A) (A) (A) (A) (A) (A)
                 (A) (A) (A) (A) (A) (A) (A) (A) (A) (A) (A) (A)
                 (A) (A) (A) (A) (A) (A) (A) (A) (A) (A) (A) (A)
                 (A) (A) (A) (A) (A) (A) (A) (A) (A) (A) (A) (A)
                 (A) (A) (A) (A) (A) (A) (A) (A) (A) (A) (A) (A)
                 (A) (A) (A) (A) (A) (A) (A) (A) (A) (A) (A) (A)
                 (A) (A) (A) (A) (A) (A) (A) (A) (A) (A) (A) (A)
                 (A) (A) (A) (A) (A) (A) (A) (A) (A) (A) (A) (A)
                 (A) (A) (A) (A) (A) (A) (A) (A) (A) (A) (A) (A)
                 (A) (A) (A) (A) (A) (A) (A) (A) (A) (A) (A) (A)
                 (A) (A) (A) (A) (A) (A) (A) (A) (A) (A) (A) (A)
                 (A) (A) (A) (A) (A) (A) (A) (A) (A) (A) (A) (A)
                 (A) (A) (A) (A) (A) (A) (A) (A) (A) (A) (A) (A)
                 (A) (A) (A) (A) (A) (A) (A) (A) (A) (A) (A) (A)
                 (A) (A) (A) (A) (A) (A) (A) (A) (A) (A) (A) (A)
                 (A) (A) (A) (A) (A) (A) (A) (A) (A) (A) (A) (A)
                 (A) (A) (A) (A) (A) (A) (A) (A) (A) (A) (A) (A)
                 (A) (A) (A) (A) (A) (A) (A) (A) (A) (A) (A) (A)
                 (A) (A) (A) (A) (A) (A) (A) (A) (A) (A) (A) (A)
                 (A) (A) (A) (A) (A) (A) (A) (A) (A) (A) (A) (A)
                 (A) (A) (A) (A) (A) (A) (A) (A) (A) (A) (A) (A)
                 (A) (A) (A) (A) (A) (A) (A) (A) (A) (A) (A) (A)
                 (A) (A) (A) (A) (A) (A) (A) (A) (A) (A) (A) (A)
                 (A) (A) (A) (A) (A) (A) (A) (A) (A) (A) (A) (A)
                 (A) (A) (A) (A) (A) (A) (A) (A) (A) (A) (A) (A)
                 (A) (A) (A) (A) (A) (A) (A) (A) (A) (A) (A) (A)
                 (A) (A) (A) (A) (A) (A) (A) (A) (A) (A) (A) (A)
                 (A) (A) (A) (A) (A) (A) (A) (A) (A) (A) (A) (A)
                 (A) (A) (A) (A) (A) (A) (A) (A) (A) (A) (A) (A)
                 (A) (A) (A) (A) (A) (A) (A) (A) (A) (A) (A) (A)
                 (A) (A) (A) (A) (A) (A) (A) (A) (A) (A) (A) (A)
                 (A) (A) (A) (A) (A) (A) (A) (A) (A) (A) (A) (A)
                 (A) (A) (A) (A) (A) (A) (A) (A) (A) (A) (A) (A)
                 (A) (A) (A) (A) (A) (A) (A) (A) (A) (A) (A) (A)
                 (A) (A) (A) (A) (A) (A) (A) (A) (A) (A) (A) (A)
                 (A) (A) (A) (A) (A) (A) (A) (A) (A) (A) (A) (A)
                 (A)
 The electronic state is 1-A.
 Alpha  occ. eigenvalues -- -398.87995 -49.38262 -44.47888 -44.47767 -44.47763
 Alpha  occ. eigenvalues --  -24.84827 -24.84826 -24.84824 -24.84807 -24.84804
 Alpha  occ. eigenvalues --  -24.84798 -24.84796 -24.84793 -24.84793 -10.54069
 Alpha  occ. eigenvalues --  -10.54033 -10.54015 -10.31266 -10.31123 -10.29930
 Alpha  occ. eigenvalues --  -10.29273 -10.29272 -10.28933 -10.28833 -10.28453
 Alpha  occ. eigenvalues --  -10.28452 -10.27727 -10.27726 -10.27633 -10.27605
 Alpha  occ. eigenvalues --  -10.27551  -6.28323  -4.54661  -4.54653  -4.54608
 Alpha  occ. eigenvalues --   -1.37346  -1.37244  -1.37239  -1.37064  -1.37062
 Alpha  occ. eigenvalues --   -1.42690  -1.42574  -1.42552  -1.33906  -1.33840
 Alpha  occ. eigenvalues --   -1.33826  -1.33775  -1.33766  -1.33748  -0.97569
 Alpha  occ. eigenvalues --   -0.95070  -0.89934  -0.86031  -0.85145  -0.84077
 Alpha  occ. eigenvalues --   -0.83674  -0.81281  -0.80868  -0.80840  -0.74908
 Alpha  occ. eigenvalues --   -0.72721  -0.71307  -0.69667  -0.69660  -0.69589
 Alpha  occ. eigenvalues --   -0.69224  -0.69200  -0.69030  -0.68095  -0.67184
 Alpha  occ. eigenvalues --   -0.67124  -0.67088  -0.63559  -0.60752  -0.58834
 Alpha  occ. eigenvalues --   -0.57530  -0.57331  -0.57322  -0.56974  -0.56947
 Alpha  occ. eigenvalues --   -0.56848  -0.55900  -0.55608  -0.54122  -0.53865
 Alpha  occ. eigenvalues --   -0.53854  -0.53163  -0.53144  -0.52791  -0.52137
 Alpha  occ. eigenvalues --   -0.52102  -0.51380  -0.51312  -0.51299  -0.51109
 Alpha  occ. eigenvalues --   -0.50822  -0.49521  -0.47672  -0.47418  -0.45619
 Alpha  occ. eigenvalues --   -0.44984  -0.43505  -0.43030  -0.42851  -0.41598
 Alpha  occ. eigenvalues --   -0.41048  -0.39570  -0.36792  -0.33585  -0.33025
 Alpha  occ. eigenvalues --   -0.31920  -0.28784
 Alpha virt. eigenvalues --   -0.03566   0.01052   0.01430   0.01619   0.02178
 Alpha virt. eigenvalues --    0.02302   0.02744   0.03247   0.03452   0.03605
 Alpha virt. eigenvalues --    0.04962   0.05131   0.05513   0.06185   0.06317
 Alpha virt. eigenvalues --    0.06907   0.07179   0.07595   0.07830   0.08144
 Alpha virt. eigenvalues --    0.08381   0.08578   0.08957   0.09943   0.10066
 Alpha virt. eigenvalues --    0.10167   0.10529   0.10842   0.11116   0.11386
 Alpha virt. eigenvalues --    0.11971   0.12003   0.12414   0.12681   0.13038
 Alpha virt. eigenvalues --    0.13305   0.13870   0.14149   0.14563   0.14801
 Alpha virt. eigenvalues --    0.15165   0.15445   0.15648   0.15757   0.16054
 Alpha virt. eigenvalues --    0.16406   0.16800   0.17527   0.17841   0.17859
 Alpha virt. eigenvalues --    0.18213   0.18378   0.18985   0.19414   0.19726
 Alpha virt. eigenvalues --    0.19822   0.20006   0.20532   0.21110   0.21524
 Alpha virt. eigenvalues --    0.21831   0.22068   0.22686   0.22798   0.22968
 Alpha virt. eigenvalues --    0.23564   0.23997   0.24135   0.24201   0.24516
 Alpha virt. eigenvalues --    0.24758   0.25120   0.25488   0.25645   0.25911
 Alpha virt. eigenvalues --    0.26036   0.26284   0.26897   0.27192   0.27514
 Alpha virt. eigenvalues --    0.27965   0.28021   0.28323   0.28753   0.29382
 Alpha virt. eigenvalues --    0.29953   0.30282   0.30559   0.31025   0.31484
 Alpha virt. eigenvalues --    0.31815   0.32369   0.32597   0.32714   0.33050
 Alpha virt. eigenvalues --    0.33658   0.33791   0.34021   0.34554   0.34793
 Alpha virt. eigenvalues --    0.35091   0.35677   0.35950   0.35984   0.36156
 Alpha virt. eigenvalues --    0.36192   0.36791   0.36931   0.37158   0.37374
 Alpha virt. eigenvalues --    0.38640   0.38907   0.39272   0.39573   0.39931
 Alpha virt. eigenvalues --    0.39947   0.41079   0.41269   0.41453   0.41822
 Alpha virt. eigenvalues --    0.42055   0.42459   0.42688   0.43172   0.44148
 Alpha virt. eigenvalues --    0.44863   0.45487   0.45955   0.46204   0.46584
 Alpha virt. eigenvalues --    0.46892   0.47271   0.47625   0.48252   0.48870
 Alpha virt. eigenvalues --    0.49003   0.49795   0.51124   0.51265   0.52461
 Alpha virt. eigenvalues --    0.53634   0.56141   0.56250   0.57427   0.58447
 Alpha virt. eigenvalues --    0.60884   0.61675   0.62453   0.63511   0.63691
 Alpha virt. eigenvalues --    0.65112   0.65493   0.66045   0.66305   0.68607
 Alpha virt. eigenvalues --    0.69180   0.69565   0.72481   0.72945   0.73270
 Alpha virt. eigenvalues --    0.74419   0.75126   0.75290   0.76931   0.77893
 Alpha virt. eigenvalues --    0.78101   0.78216   0.78616   0.79061   0.80099
 Alpha virt. eigenvalues --    0.80807   0.81169   0.82074   0.83285   0.83425
 Alpha virt. eigenvalues --    0.83702   0.84327   0.85557   0.85981   0.87272
 Alpha virt. eigenvalues --    0.87714   0.89297   0.89727   0.90670   0.91336
 Alpha virt. eigenvalues --    0.91560   0.92025   0.92883   0.93071   0.93468
 Alpha virt. eigenvalues --    0.94359   0.96230   0.96419   0.97831   0.98107
 Alpha virt. eigenvalues --    0.98710   0.99275   1.00867   1.01222   1.02108
 Alpha virt. eigenvalues --    1.02382   1.03997   1.06786   1.07716   1.08240
 Alpha virt. eigenvalues --    1.09934   1.11443   1.12156   1.14077   1.16247
 Alpha virt. eigenvalues --    1.17048   1.18712   1.19706   1.22404   1.22859
 Alpha virt. eigenvalues --    1.23542   1.24124   1.25905   1.26137   1.27271
 Alpha virt. eigenvalues --    1.28066   1.30219   1.30782   1.31947   1.34312
 Alpha virt. eigenvalues --    1.35812   1.37104   1.37223   1.37288   1.38709
 Alpha virt. eigenvalues --    1.39253   1.39843   1.42611   1.42918   1.44145
 Alpha virt. eigenvalues --    1.45169   1.45884   1.46223   1.46538   1.47101
 Alpha virt. eigenvalues --    1.47774   1.48106   1.48262   1.49444   1.49753
 Alpha virt. eigenvalues --    1.50952   1.53261   1.53749   1.56464   1.59576
 Alpha virt. eigenvalues --    1.61052   1.62047   1.62753   1.63345   1.63797
 Alpha virt. eigenvalues --    1.63944   1.64926   1.65567   1.66012   1.66965
 Alpha virt. eigenvalues --    1.67263   1.67743   1.68969   1.69310   1.70054
 Alpha virt. eigenvalues --    1.70108   1.70651   1.72267   1.72602   1.73170
 Alpha virt. eigenvalues --    1.73963   1.74171   1.74898   1.75348   1.75648
 Alpha virt. eigenvalues --    1.77492   1.78232   1.79025   1.79701   1.81259
 Alpha virt. eigenvalues --    1.81651   1.83237   1.85838   1.86140   1.86357
 Alpha virt. eigenvalues --    1.86840   1.87319   1.88230   1.88829   1.88998
 Alpha virt. eigenvalues --    1.89289   1.89600   1.90149   1.90432   1.90570
 Alpha virt. eigenvalues --    1.90944   1.91937   1.92708   1.92776   1.93343
 Alpha virt. eigenvalues --    1.93449   1.94759   1.95098   1.95724   1.95897
 Alpha virt. eigenvalues --    1.96623   1.97172   1.98476   1.99898   2.00950
 Alpha virt. eigenvalues --    2.01062   2.01784   2.02691   2.03204   2.03759
 Alpha virt. eigenvalues --    2.04324   2.05088   2.06293   2.06431   2.06805
 Alpha virt. eigenvalues --    2.07704   2.08136   2.08414   2.08636   2.08941
 Alpha virt. eigenvalues --    2.09058   2.09171   2.09371   2.09663   2.10052
 Alpha virt. eigenvalues --    2.10446   2.11618   2.13209   2.13602   2.14249
 Alpha virt. eigenvalues --    2.16174   2.16555   2.16970   2.18453   2.21017
 Alpha virt. eigenvalues --    2.24327   2.24378   2.25408   2.26467   2.29963
 Alpha virt. eigenvalues --    2.30688   2.30796   2.31151   2.32254   2.33190
 Alpha virt. eigenvalues --    2.35209   2.35505   2.36499   2.37172   2.37940
 Alpha virt. eigenvalues --    2.38306   2.39277   2.41623   2.42675   2.44755
 Alpha virt. eigenvalues --    2.45439   2.45756   2.46419   2.47119   2.47896
 Alpha virt. eigenvalues --    2.49522   2.50750   2.52037   2.53776   2.55758
 Alpha virt. eigenvalues --    2.56550   2.57729   2.59835   2.60294   2.60960
 Alpha virt. eigenvalues --    2.61633   2.64884   2.65792   2.66365   2.66850
 Alpha virt. eigenvalues --    2.68658   2.70078   2.71169   2.72019   2.72952
 Alpha virt. eigenvalues --    2.73060   2.74294   2.76017   2.77302   2.78557
 Alpha virt. eigenvalues --    2.79890   2.82991   2.83394   2.84820   2.84955
 Alpha virt. eigenvalues --    2.85439   2.87626   2.88732   2.89924   2.90423
 Alpha virt. eigenvalues --    2.91414   3.00687   3.02671   3.13002   3.14658
 Alpha virt. eigenvalues --    3.15521   3.18606   3.18998   3.22697   3.24238
 Alpha virt. eigenvalues --    3.25184   3.26115   3.26163   3.27398   3.30413
 Alpha virt. eigenvalues --    3.30822   3.34314   3.35264   3.35697   3.36106
 Alpha virt. eigenvalues --    3.36723   3.38495   3.46936   3.47371   3.51943
 Alpha virt. eigenvalues --    3.60156   3.60718   3.88617   3.98222   4.33522
 Alpha virt. eigenvalues --    4.36525   4.37106   4.38648   4.41739   4.43477
 Alpha virt. eigenvalues --    4.48599   4.49731   4.56284   4.56458   4.56994
 Alpha virt. eigenvalues --    4.57488   4.57808   4.58529   4.71209   4.90781
 Alpha virt. eigenvalues --    5.01783   5.59097   5.61757   5.99929   6.16195
 Alpha virt. eigenvalues --    6.17027   6.26445   6.39326   6.82125   6.84522
 Alpha virt. eigenvalues --    6.91789  51.51837
          Condensed to atoms (all electrons):
              1          2          3          4          5          6
     1  Ge  31.691094   0.577451  -0.106388  -0.130562  -0.090000   0.639364
     2  C    0.577451   4.331488   0.140132   0.126192   0.147347   0.008043
     3  F   -0.106388   0.140132   9.251842  -0.021633  -0.030073  -0.001178
     4  F   -0.130562   0.126192  -0.021633   9.274322  -0.022926  -0.012067
     5  F   -0.090000   0.147347  -0.030073  -0.022926   9.256300   0.000343
     6  C    0.639364   0.008043  -0.001178  -0.012067   0.000343   4.388352
     7  F   -0.112261  -0.004828   0.000725   0.000649   0.000105   0.139829
     8  F   -0.131924  -0.007785   0.002390   0.010026   0.000826   0.116262
     9  F   -0.094529  -0.009491   0.004388  -0.000294   0.000057   0.141688
    10  C    0.622746   0.007092  -0.003926  -0.007994  -0.007688   0.024609
    11  F   -0.132760  -0.012941   0.000622   0.010223  -0.000255  -0.009652
    12  F   -0.094515  -0.000592   0.000102   0.000825   0.000023  -0.009806
    13  F   -0.109664  -0.001467   0.000660   0.002220   0.004101  -0.006062
    14  C   -0.222601  -0.121048   0.037686   0.037864   0.014232  -0.219461
    15  C   -0.310304   0.023314  -0.019505  -0.006888  -0.006856   0.025674
    16  C   -0.002124  -0.001639  -0.000029   0.000008  -0.000141  -0.004092
    17  C    0.033355  -0.005683   0.001535   0.000414   0.003860   0.026325
    18  C    0.058693  -0.001763   0.000289   0.000035   0.000496   0.025971
    19  C    0.042145   0.000176  -0.000537  -0.000069  -0.001540   0.002529
    20  C   -0.064433   0.012970  -0.003420  -0.000758  -0.008169  -0.038856
    21  C   -0.150310  -0.042202   0.006656   0.002300   0.005022  -0.066920
    22  H    0.000251   0.000047   0.000000   0.000000   0.000000  -0.000187
    23  H   -0.000081   0.000000   0.000000   0.000000   0.000000   0.000001
    24  H   -0.000065   0.000004   0.000000   0.000000   0.000000  -0.000001
    25  H    0.000147   0.000270   0.000003   0.000000   0.000001  -0.000063
    26  C    0.000042   0.000000   0.000000   0.000000   0.000000   0.000000
    27  C   -0.000236   0.000000   0.000000   0.000000   0.000000   0.000056
    28  C   -0.000108   0.000001   0.000000   0.000000   0.000000  -0.000007
    29  C   -0.000135   0.000001   0.000000   0.000000   0.000000   0.000002
    30  C    0.000595  -0.000028   0.000000   0.000000   0.000002  -0.000055
    31  C    0.001580   0.000046   0.000000   0.000000  -0.000001   0.000232
    32  H    0.000003   0.000000   0.000000   0.000000   0.000000   0.000000
    33  H    0.000000   0.000000   0.000000   0.000000   0.000000   0.000000
    34  H    0.000000   0.000000   0.000000   0.000000   0.000000   0.000000
    35  H    0.000000   0.000000   0.000000   0.000000   0.000000   0.000000
    36  H    0.000000   0.000000   0.000000   0.000000   0.000000   0.000000
              7          8          9         10         11         12
     1  Ge  -0.112261  -0.131924  -0.094529   0.622746  -0.132760  -0.094515
     2  C   -0.004828  -0.007785  -0.009491   0.007092  -0.012941  -0.000592
     3  F    0.000725   0.002390   0.004388  -0.003926   0.000622   0.000102
     4  F    0.000649   0.010026  -0.000294  -0.007994   0.010223   0.000825
     5  F    0.000105   0.000826   0.000057  -0.007688  -0.000255   0.000023
     6  C    0.139829   0.116262   0.141688   0.024609  -0.009652  -0.009806
     7  F    9.252096  -0.020568  -0.029518  -0.002930   0.002466   0.004445
     8  F   -0.020568   9.278755  -0.022367  -0.013102   0.010332  -0.000198
     9  F   -0.029518  -0.022367   9.254766  -0.001389   0.000854   0.000089
    10  C   -0.002930  -0.013102  -0.001389   4.374898   0.120635   0.142403
    11  F    0.002466   0.010332   0.000854   0.120635   9.277283  -0.022601
    12  F    0.004445  -0.000198   0.000089   0.142403  -0.022601   9.256379
    13  F    0.000762   0.000664   0.000107   0.136788  -0.021821  -0.029784
    14  C    0.041822   0.045882   0.030954  -0.199794   0.046022   0.030412
    15  C   -0.015820  -0.007245  -0.011789   0.024487  -0.007053  -0.013277
    16  C    0.000062   0.000015  -0.000005  -0.002869   0.000013  -0.000007
    17  C    0.001576  -0.000491  -0.004658   0.029109  -0.000772  -0.000503
    18  C   -0.000051  -0.000062  -0.000854   0.023682  -0.000112  -0.000255
    19  C   -0.000124   0.000015   0.000319  -0.000086   0.000034   0.000113
    20  C   -0.000312   0.000309   0.004325  -0.034747   0.000444   0.001006
    21  C    0.004885   0.002845   0.003564  -0.062805   0.002890   0.002887
    22  H    0.000002   0.000000   0.000000  -0.000137   0.000000   0.000004
    23  H    0.000000   0.000000   0.000000   0.000002   0.000000   0.000000
    24  H    0.000000   0.000000   0.000000   0.000000   0.000000   0.000000
    25  H    0.000000   0.000000   0.000000  -0.000018   0.000000   0.000000
    26  C    0.000000   0.000000   0.000000   0.000000   0.000000   0.000000
    27  C    0.000001   0.000000   0.000001   0.000077   0.000000   0.000000
[...]
     18          6           0        3.899908   -1.198275    0.134858
     19          6           0        3.924200    1.245560   -0.131376
     20          6           0        2.564372    1.262769   -0.128193
     21          6           0        1.811449    0.045319    0.003555
     22          1           0        1.986506   -2.114193    0.230917
     23          1           0        4.399679   -2.152697    0.228737
     24          1           0        4.443339    2.189512   -0.226219
     25          1           0        2.029955    2.201201   -0.223417
     26          6           0        8.940333   -0.028644   -0.008490
     27          6           0        6.844654   -1.212919    0.191083
     28          6           0        8.220470   -1.216625    0.187134
     29          6           0        8.244725    1.174441   -0.199646
     30          6           0        6.869126    1.199840   -0.196193
     31          6           0        6.095532    0.001493   -0.000746
     32          1           0        6.327691   -2.148985    0.353022
     33          1           0        8.752344   -2.150070    0.338685
     34          1           0        8.795403    2.096436   -0.354021
     35          1           0        6.371211    2.146798   -0.354753
     36          1           0       10.025168   -0.040153   -0.011607
 ---------------------------------------------------------------------
                    Distance matrix (angstroms):
                    1          2          3          4          5
     1  Ge   0.000000
     2  C    1.974025   0.000000
     3  F    2.769553   1.348809   0.000000
     4  F    2.747406   1.349746   2.174767   0.000000
     5  F    2.786001   1.344671   2.170806   2.171399   0.000000
     6  C    1.984434   3.153426   3.301897   3.563661   4.356393
     7  F    2.778159   4.326125   4.630809   4.631351   5.450055
     8  F    2.761820   3.232550   3.290193   3.155903   4.563779
     9  F    2.792952   3.677210   3.352023   4.332591   4.809664
    10  C    1.981164   3.170423   4.329902   3.223641   3.729398
    11  F    2.760317   3.580585   4.622057   3.156084   4.383917
    12  F    2.787621   4.367790   5.447122   4.554255   4.859270
    13  F    2.775480   3.339998   4.664402   3.290268   3.438497
    14  C    1.831105   3.160306   3.692340   4.285637   3.384255
    15  C    3.062321   4.235905   4.637039   5.432133   4.225500
    16  C    7.313945   8.301086   8.499861   9.563541   7.970232
    17  C    5.311533   6.678751   7.048963   7.835715   6.615299
    18  C    6.645135   7.920789   8.231499   9.112794   7.758597
    19  C    6.675508   7.370767   7.487327   8.669670   6.929501
    20  C    5.349578   6.014466   6.162128   7.314006   5.616645
    21  C    4.445469   5.526243   5.832190   6.758873   5.359686
    22  H    5.088728   6.691193   7.149890   7.743375   6.786205
    23  H    7.360828   8.775508   9.124589   9.921187   8.678194
    24  H    7.409893   7.878633   7.907347   9.188241   7.324645
    25  H    5.159543   5.471115   5.524221   6.785830   4.953254
    26  C   11.574243  12.500699  12.624964  13.777925  12.066283
    27  C    9.558400  10.707511  10.938830  11.938103  10.407698
    28  C   10.924507  12.034076  12.236941  13.275690  11.694582
    29  C   10.943032  11.687360  11.746908  12.986062  11.183041
    30  C    9.579755  10.312692  10.382966  11.612100   9.823759
    31  C    8.729384   9.690430   9.857691  10.959704   9.314586
    32  H    9.223627  10.532825  10.834370  11.715224  10.324493
    33  H   11.593378  12.810331  13.052836  14.024491  12.518863
    34  H   11.624356  12.226907  12.226558  13.534470  11.659627
    35  H    9.262966   9.806266   9.809957  11.117100   9.251484
    36  H   12.659114  13.576176  13.688616  14.855316  13.126106
                    6          7          8          9         10
     6  C    0.000000
     7  F    1.349188   0.000000
     8  F    1.350331   2.175543   0.000000
     9  F    1.344714   2.171847   2.170051   0.000000
    10  C    3.131145   3.284920   3.529593   4.339977   0.000000
    11  F    3.192305   3.260574   3.097046   4.524271   1.349950
    12  F    3.657770   3.332159   4.301138   4.799884   1.345797
    13  F    4.307494   4.614873   4.596895   5.439106   1.347962
    14  C    3.200325   3.716462   4.324075   3.446759   3.187702
    15  C    4.262774   4.640766   5.463050   4.278295   4.256076
    16  C    8.294548   8.445156   9.571792   7.986881   8.292220
    17  C    6.192280   6.162991   7.505982   6.084751   6.124131
    18  C    7.508865   7.466743   8.828535   7.309259   7.451883
    19  C    7.784102   8.159430   8.980154   7.441925   7.834269
    20  C    6.525144   6.988982   7.685093   6.245797   6.584122
    21  C    5.538288   5.811727   6.780041   5.396483   5.535489
    22  H    5.807257   5.563283   7.132052   5.823026   5.682922
    23  H    8.104367   7.898088   9.442452   7.934900   8.015542
    24  H    8.557038   9.037156   9.696743   8.157464   8.636240
    25  H    6.420165   7.079597   7.463333   6.120514   6.525330
    26  C   12.480878  12.547014  13.775478  12.066941  12.480642
    27  C   10.407291  10.349331  11.730323  10.095939  10.348243
    28  C   11.764851  11.702902  13.088223  11.417334  11.713285
    29  C   11.922449  12.132485  13.172933  11.471387  11.971870
    30  C   10.587161  10.837405  11.826046  10.158381  10.642218
    31  C    9.678458   9.793191  10.963761   9.324900   9.676684
    32  H    9.998283   9.813353  11.336664   9.756934   9.886435
    33  H   12.370000  12.203598  13.708108  12.053252  12.282719
    34  H   12.634413  12.926555  13.850744  12.142751  12.718504
    35  H   10.326251  10.707953  11.509652   9.866600  10.429995
    36  H   13.554202  13.607017  14.851014  13.124101  13.554422
                   11         12         13         14         15
    11  F    0.000000
    12  F    2.171425   0.000000
    13  F    2.173883   2.171746   0.000000
    14  C    4.315389   3.426329   3.702431   0.000000
    15  C    5.455402   4.256379   4.644047   1.231394   0.000000
    16  C    9.559439   7.949903   8.482109   5.483462   4.252138
    17  C    7.341699   5.645268   6.513206   3.566709   2.452446
    18  C    8.685468   6.936555   7.768785   4.867220   3.692491
    19  C    9.096611   7.725675   7.938627   4.878733   3.696601
    20  C    7.824133   6.591806   6.713599   3.582551   2.458925
    21  C    6.772051   5.370894   5.831619   2.614734   1.383364
    22  H    6.835517   5.019221   6.202514   3.536776   2.678415
    23  H    9.213918   7.344888   8.384193   5.653643   4.548190
    24  H    9.891708   8.628121   8.657062   5.671575   4.554410
    25  H    7.720461   6.751052   6.565801   3.565939   2.689854
    26  C   13.761492  12.025672  12.597627   9.743928   8.512624
    27  C   11.602947   9.788212  10.562725   7.753326   6.542724
    28  C   12.973005  11.141984  11.899157   9.113680   7.897091
    29  C   13.259016  11.659365  12.036817   9.120231   7.899424
    30  C   11.924383  10.377951  10.718204   7.761085   6.545558
    31  C   10.950449   9.285542   9.835502   6.898971   5.667656
    32  H   11.110182   9.213700  10.166213   7.469668   6.306451
    33  H   13.521314  11.614441  12.502560   9.810724   8.617090
    34  H   14.005918  12.484700  12.735643   9.821525   8.620880
    35  H   11.702524  10.302124  10.456574   7.484007   6.311685
    36  H   14.836875  13.082407  13.659927  10.828825   9.597524
                   16         17         18         19         20
    16  C    0.000000
    17  C    2.458489   0.000000
    18  C    1.449447   1.359704   0.000000
    19  C    1.449440   2.811432   2.458415   0.000000
    20  C    2.459176   2.464094   2.812400   1.359941   0.000000
    21  C    2.868790   1.437814   2.434220   2.433619   1.437510
    22  H    3.441756   1.084117   2.123497   3.895363   3.444816
    23  H    2.198511   2.097286   1.081436   3.450204   3.893733
    24  H    2.198208   3.892789   3.450043   1.081455   2.097374
    25  H    3.442232   3.445217   3.896348   2.123649   1.084124
    26  C    4.260490   6.505664   5.176337   5.176899   6.506531
    27  C    2.496295   4.304856   2.945319   3.831077   4.954976
    28  C    3.753411   5.680543   4.320917   4.962031   6.183711
    29  C    3.753547   6.183028   4.961764   4.321649   5.681489
    30  C    2.496494   4.954421   3.831032   2.945994   4.305751
    31  C    1.415519   3.751163   2.505712   2.505883   3.751820
    32  H    2.743219   3.913772   2.616404   4.187403   5.102372
    33  H    4.624797   6.289597   4.949099   5.921337   7.082121
    34  H    4.624986   7.081495   5.921148   4.949968   6.290608
    35  H    2.743571   5.102047   4.187669   2.617249   3.914698
    36  H    5.345390   7.573703   6.235503   6.236122   7.574607
                   21         22         23         24         25
    21  C    0.000000
    22  H    2.178492   0.000000
    23  H    3.403074   2.413481   0.000000
    24  H    3.402529   4.976633   4.366196   0.000000
    25  H    2.178782   4.339462   4.977596   2.413414   0.000000
    26  C    7.129277   7.263782   5.018507   5.019021   7.264414
    27  C    5.191481   4.941203   2.619638   4.185330   5.916870
    28  C    6.534658   6.298401   3.934007   5.102877   7.083260
    29  C    6.534772   7.082782   5.102718   3.934668   6.299060
    30  C    5.191619   5.916521   4.185479   2.620075   4.941765
    31  C    4.284309   4.627514   2.751202   2.751001   4.627873
    32  H    5.033243   4.343041   1.932017   4.765381   6.142225
    33  H    7.287528   6.766791   4.354054   6.141547   8.027454
    34  H    7.287699   8.026994   6.141427   4.354935   6.767520
    35  H    5.033491   6.142043   4.765822   1.932624   4.343583
    36  H    8.214177   8.305453   6.013878   6.014506   8.306140
                   26         27         28         29         30
    26  C    0.000000
    27  C    2.415410   0.000000
    28  C    1.402772   1.375827   0.000000
    29  C    1.402791   2.795059   2.422269   0.000000
    30  C    2.415430   2.443765   2.795063   1.375837   0.000000
    31  C    2.844971   1.439715   2.456517   2.456501   1.439682
    32  H    3.384144   1.081524   2.116466   3.876289   3.436483
    33  H    2.157850   2.130567   1.084977   3.405855   3.880013
    34  H    2.157860   3.879999   3.405844   1.084967   2.130572
    35  H    3.384204   3.436537   3.876342   2.116504   1.081568
    36  H    1.084901   3.395899   2.163450   2.163464   3.395918
                   31         32         33         34         35
    31  C    0.000000
    32  H    2.191713   0.000000
    33  H    3.435562   2.424696   0.000000
    34  H    3.435534   4.961160   4.302848   0.000000
    35  H    2.191724   4.353917   4.961222   2.424716   0.000000
    36  H    3.929872   4.272173   2.488882   2.488892   4.272225
                   36
    36  H    0.000000
 Stoichiometry    C17H9F9Ge
 Framework group  C1[X(C17H9F9Ge)]
 Deg. of freedom   102
 Full point group                 C1      NOp   1
 Largest Abelian subgroup         C1      NOp   1
 Largest concise Abelian subgroup C1      NOp   1
                         Standard orientation:                         
 ---------------------------------------------------------------------
 Center     Atomic      Atomic             Coordinates (Angstroms)
 Number     Number       Type             X           Y           Z
 ---------------------------------------------------------------------
      1         32           0        2.632683    0.011422   -0.006846
      2          6           0        3.420248    1.807094   -0.235061
      3          9           0        3.391081    2.510307    0.915558
      4          9           0        4.712281    1.702085   -0.611143
      5          9           0        2.787794    2.538451   -1.169544
      6          6           0        3.410276   -0.703454    1.673118
      7          9           0        3.324012   -2.048926    1.723817
      8          9           0        4.718133   -0.379190    1.761195
      9          9           0        2.804225   -0.218764    2.771313
     10          6           0        3.407394   -1.129964   -1.428841
     11          9           0        4.701384   -1.405763   -1.160716
     12          9           0        2.764166   -2.305772   -1.550917
     13          9           0        3.366537   -0.520087   -2.630250
     14          6           0        0.802046    0.050139   -0.021376
     15          6           0       -0.429336    0.053247   -0.016859
     16          6           0       -4.681261    0.012562   -0.004341
     17          6           0       -2.539941   -1.194787    0.030608
     18          6           0       -3.899585   -1.207517    0.031503
     19          6           0       -3.926888    1.249628   -0.042615
     20          6           0       -2.567081    1.267901   -0.048062
     21          6           0       -1.812659    0.044852   -0.010219
     22          1           0       -1.985056   -2.125571    0.063085
     23          1           0       -4.398181   -2.166366    0.070418
     24          1           0       -4.447188    2.196991   -0.079189
     25          1           0       -2.033820    2.211143   -0.083432
     26          6           0       -8.941450   -0.035487    0.011497
     27          6           0       -6.844298   -1.233406   -0.022338
     28          6           0       -8.220110   -1.238220   -0.018000
     29          6           0       -8.247339    1.183325    0.034566
     30          6           0       -6.871772    1.209692    0.027719
     31          6           0       -6.096686   -0.003218   -0.000164
     32          1           0       -6.326168   -2.182235   -0.053305
     33          1           0       -8.750821   -2.184304   -0.039104
     34          1           0       -8.799166    2.117131    0.059985
     35          1           0       -6.375037    2.170087    0.053897
     36          1           0      -10.026272   -0.047786    0.016108
 ---------------------------------------------------------------------
 Rotational constants (GHZ):      0.3776007      0.0548722      0.0537373
 Standard basis: 6-31+G(d,p) (6D, 7F)
 There are   573 symmetry adapted basis functions of A   symmetry.
 Integral buffers will be    131072 words long.
 Raffenetti 2 integral format.
 Two-electron integral symmetry is turned on.
   573 basis functions,   982 primitive gaussians,   573 cartesian basis functions
   112 alpha electrons      112 beta electrons
       nuclear repulsion energy      3081.2941922528 Hartrees.
 NAtoms=   36 NActive=   36 NUniq=   36 SFac= 7.50D-01 NAtFMM=   80 NAOKFM=F Big=F
 ------------------------------------------------------------------------------
 Polarizable Continuum Model (PCM)
 =================================
 Model                : PCM.
 Atomic radii         : UFF (Universal Force Field).
 Polarization charges : Total charges.
 Charge compensation  : None.
 Solution method      : Matrix inversion.
 Cavity type          : Scaled VdW (van der Waals Surface) (Alpha=1.100).
 Cavity algorithm     : GePol (No added spheres)
                        Default sphere list used, NSphG=   36.
                        Lebedev-Laikov grids with approx.  5.0 points / Ang**2.
                        Smoothing algorithm: Karplus/York (Gamma=1.0000).
                        Polarization charges: spherical gaussians, with
                                              point-specific exponents (IZeta= 3).
                        Self-potential: point-specific (ISelfS= 7).
                        Self-field    : sphere-specific E.n sum rule (ISelfD= 2).
 1st derivatives      : Analytical E(r).r(x)/FMM algorithm (CHGder, D1EAlg=3).
                        Cavity 1st derivative terms included.
 Solvent              : Dichloromethane, Eps=   8.930000 Eps(inf)=   2.028346
 ------------------------------------------------------------------------------
 One-electron integrals computed using PRISM.
 NBasis=   573 RedAO= T  NBF=   573
 NBsUse=   567 1.00D-06 NBFU=   567
 Initial guess read from the read-write file.
 B after Tr=     0.000000    0.000000    0.000000
         Rot=    1.000000    0.000000    0.000000    0.000000 Ang=   0.00 deg.
 Initial guess orbital symmetries:
       Occupied  (A) (A) (A) (A) (A) (A) (A) (A) (A) (A) (A) (A)
                 (A) (A) (A) (A) (A) (A) (A) (A) (A) (A) (A) (A)
                 (A) (A) (A) (A) (A) (A) (A) (A) (A) (A) (A) (A)
                 (A) (A) (A) (A) (A) (A) (A) (A) (A) (A) (A) (A)
                 (A) (A) (A) (A) (A) (A) (A) (A) (A) (A) (A) (A)
                 (A) (A) (A) (A) (A) (A) (A) (A) (A) (A) (A) (A)
                 (A) (A) (A) (A) (A) (A) (A) (A) (A) (A) (A) (A)
                 (A) (A) (A) (A) (A) (A) (A) (A) (A) (A) (A) (A)
                 (A) (A) (A) (A) (A) (A) (A) (A) (A) (A) (A) (A)
                 (A) (A) (A) (A)
       Virtual   (A) (A) (A) (A) (A) (A) (A) (A) (A) (A) (A) (A)
                 (A) (A) (A) (A) (A) (A) (A) (A) (A) (A) (A) (A)
                 (A) (A) (A) (A) (A) (A) (A) (A) (A) (A) (A) (A)
                 (A) (A) (A) (A) (A) (A) (A) (A) (A) (A) (A) (A)
                 (A) (A) (A) (A) (A) (A) (A) (A) (A) (A) (A) (A)
                 (A) (A) (A) (A) (A) (A) (A) (A) (A) (A) (A) (A)
                 (A) (A) (A) (A) (A) (A) (A) (A) (A) (A) (A) (A)
                 (A) (A) (A) (A) (A) (A) (A) (A) (A) (A) (A) (A)
                 (A) (A) (A) (A) (A) (A) (A) (A) (A) (A) (A) (A)
                 (A) (A) (A) (A) (A) (A) (A) (A) (A) (A) (A) (A)
                 (A) (A) (A) (A) (A) (A) (A) (A) (A) (A) (A) (A)
                 (A) (A) (A) (A) (A) (A) (A) (A) (A) (A) (A) (A)
                 (A) (A) (A) (A) (A) (A) (A) (A) (A) (A) (A) (A)
                 (A) (A) (A) (A) (A) (A) (A) (A) (A) (A) (A) (A)
                 (A) (A) (A) (A) (A) (A) (A) (A) (A) (A) (A) (A)
                 (A) (A) (A) (A) (A) (A) (A) (A) (A) (A) (A) (A)
                 (A) (A) (A) (A) (A) (A) (A) (A) (A) (A) (A) (A)
                 (A) (A) (A) (A) (A) (A) (A) (A) (A) (A) (A) (A)
                 (A) (A) (A) (A) (A) (A) (A) (A) (A) (A) (A) (A)
                 (A) (A) (A) (A) (A) (A) (A) (A) (A) (A) (A) (A)
                 (A) (A) (A) (A) (A) (A) (A) (A) (A) (A) (A) (A)
                 (A) (A) (A) (A) (A) (A) (A) (A) (A) (A) (A) (A)
                 (A) (A) (A) (A) (A) (A) (A) (A) (A) (A) (A) (A)
                 (A) (A) (A) (A) (A) (A) (A) (A) (A) (A) (A) (A)
                 (A) (A) (A) (A) (A) (A) (A) (A) (A) (A) (A) (A)
                 (A) (A) (A) (A) (A) (A) (A) (A) (A) (A) (A) (A)
                 (A) (A) (A) (A) (A) (A) (A) (A) (A) (A) (A) (A)
                 (A) (A) (A) (A) (A) (A) (A) (A) (A) (A) (A) (A)
                 (A) (A) (A) (A) (A) (A) (A) (A) (A) (A) (A) (A)
                 (A) (A) (A) (A) (A) (A) (A) (A) (A) (A) (A) (A)
                 (A) (A) (A) (A) (A) (A) (A) (A) (A) (A) (A) (A)
                 (A) (A) (A) (A) (A) (A) (A) (A) (A) (A) (A) (A)
                 (A) (A) (A) (A) (A) (A) (A) (A) (A) (A) (A) (A)
                 (A) (A) (A) (A) (A) (A) (A) (A) (A) (A) (A) (A)
                 (A) (A) (A) (A) (A) (A) (A) (A) (A) (A) (A) (A)
                 (A) (A) (A) (A) (A) (A) (A) (A) (A) (A) (A) (A)
                 (A) (A) (A) (A) (A) (A) (A) (A) (A) (A) (A) (A)
                 (A) (A) (A) (A) (A) (A) (A) (A) (A) (A) (A)
 Requested convergence on RMS density matrix=1.00D-08 within 128 cycles.
 Requested convergence on MAX density matrix=1.00D-06.
 Requested convergence on             energy=1.00D-06.
 No special actions if energy rises.
 FoFJK:  IHMeth= 1 ICntrl=     0 DoSepK=T KAlg= 1 I1Cent= 0 FoldK=F
 FoFJK:  IHMeth= 1 ICntrl=     0 DoSepK=T KAlg= 1 I1Cent= 0 FoldK=F
 FoFJK:  IHMeth= 1 ICntrl=     0 DoSepK=T KAlg= 1 I1Cent= 0 FoldK=F
 FoFJK:  IHMeth= 1 ICntrl=     0 DoSepK=T KAlg= 1 I1Cent= 0 FoldK=F
 FoFJK:  IHMeth= 1 ICntrl=     0 DoSepK=T KAlg= 1 I1Cent= 0 FoldK=F
